<?xml version="1.0"?>
<VTKFile type="PolyData" version="0.1" byte_order="LittleEndian" compressor="vtkZLibDataCompressor">
	<PolyData>
		<Piece NumberOfPoints="175" NumberOfVerts="0" NumberOfLines="0" NumberOfStrips="0" NumberOfPolys="346">
		<PointData Normals="Normals">
		<DataArray type="Float32" Name="Normals" NumberOfComponents="3" format="ascii">
			-0.625711  0.312376  0.714778
			-0.593158 -0.510195  0.622788
			 0.161665 -0.561049  0.811843
			 0.046936  0.337904  0.940010
			-0.852643  0.116048  0.509444
			-0.655348  0.277066  0.702676
			-0.558564 -0.711600  0.426183
			 0.074721 -0.940914  0.330300
			 0.602418 -0.113916  0.790010
			 0.566484 -0.596152  0.568945
			 0.200845 -0.922431  0.329823
			 0.911059  0.350193  0.217571
			 0.259569  0.323721  0.909851
			 0.721915  0.047300  0.690364
			-0.840839  0.196958  0.504181
			-0.981290  0.127019 -0.144694
			-0.904546 -0.140177  0.402674
			-0.024287  0.216152  0.976058
			-0.663103  0.118520  0.739086
			-0.882100 -0.282044 -0.377295
			-0.629330 -0.573513  0.524430
			 0.145717 -0.826683  0.543473
			-0.888632 -0.450845  0.084092
			 0.248768 -0.955997  0.155514
			 0.329265 -0.594603  0.733507
			 0.953123  0.214485  0.213429
			 0.916560  0.159846 -0.366561
			 0.987625  0.155704  0.018801
			 0.783235  0.082097 -0.616281
			-0.856256  0.082213  0.509967
			-0.955675  0.194504 -0.221027
			-0.585508  0.009727 -0.810608
			 0.564303  0.161262  0.809664
			-0.634309  0.033616  0.772348
			-0.318210  0.004380 -0.948010
			-0.656076 -0.621834 -0.427654
			 0.092661 -0.865643  0.492012
			-0.556419 -0.780144  0.285960
			 0.525194 -0.848494 -0.065034
			 0.680945 -0.696792 -0.225378
			 0.750103 -0.519768 -0.408885
			 0.759804 -0.431505 -0.486314
			 0.858070 -0.421041  0.294007
			 0.948988  0.256812  0.182948
			 0.953217  0.154875 -0.259599
			 0.979942  0.111099 -0.165438
			 0.961766  0.085542 -0.260171
			 0.827997 -0.068283 -0.556559
			-0.853264  0.011235  0.521358
			-0.993917  0.108245  0.020292
			-0.735944  0.093708 -0.670526
			-0.524012  0.084125 -0.847546
			 0.999099  0.042388  0.002241
			 0.468164  0.008664  0.883599
			-0.619888 -0.020969  0.784410
			 0.044352  0.025667 -0.998686
			 0.264064 -0.081241 -0.961078
			 0.271094 -0.443149 -0.854475
			 0.414855 -0.876707 -0.243474
			-0.105971 -0.992681 -0.057923
			 0.445293 -0.516285 -0.731549
			 0.338589 -0.650534 -0.679826
			 0.978943 -0.171210 -0.111161
			 0.824277 -0.399680 -0.401027
			 0.804947  0.117484 -0.581599
			 0.880032  0.079919 -0.468141
			 0.955420  0.029800 -0.293742
			 0.859166 -0.012350 -0.511548
			 0.745851  0.142831 -0.650619
			-0.798349 -0.025317  0.601662
			-0.994095  0.013408 -0.107679
			-0.501390  0.006029 -0.865201
			-0.152635  0.031019 -0.987796
			 0.982629 -0.015306 -0.184951
			 0.997978 -0.040193  0.049237
			 0.321350 -0.107261  0.940866
			-0.624660 -0.052877  0.779104
			-0.039022 -0.129128 -0.990860
			 0.215273  0.024212 -0.976254
			 0.030416 -0.016404 -0.999403
			 0.194094 -0.345378 -0.918173
			 0.224050 -0.015908 -0.974448
			 0.368964  0.076545 -0.926286
			 0.321804  0.023580 -0.946513
			 0.421373  0.028385 -0.906443
			 0.603290  0.037039 -0.796662
			-0.787508 -0.044596  0.614689
			-0.998902 -0.010817 -0.045590
			-0.577903  0.010049 -0.816044
			 0.431411  0.126560 -0.893234
			 0.955388 -0.005212 -0.295307
			 0.993812 -0.066473  0.088985
			 0.248813 -0.133754  0.959272
			-0.532947 -0.138589  0.834722
			-0.493333  0.072487 -0.866815
			-0.789627 -0.129208  0.599829
			-0.999618 -0.000023 -0.027637
			-0.607939  0.132579 -0.782837
			-0.522125  0.161598 -0.837419
			 0.517604  0.140925 -0.843935
			 0.968449  0.001000 -0.249208
			 0.968709 -0.064963  0.239547
			 0.345739 -0.186774  0.919554
			-0.328462 -0.249510  0.910965
			-0.998551 -0.031340 -0.043747
			-0.680371 -0.267287  0.682388
			-0.996434 -0.082231 -0.018886
			-0.980776 -0.070079 -0.182120
			-0.428857  0.154439 -0.890073
			 0.640299  0.141726 -0.754938
			 0.973863  0.011223 -0.226860
			 0.946469 -0.108156  0.304137
			 0.427694 -0.243443  0.870525
			-0.119068 -0.291382  0.949168
			-0.713996 -0.359675  0.600702
			-0.968833 -0.189144 -0.159961
			 0.451398  0.181101 -0.873752
			-0.449927  0.189041 -0.872828
			-0.931006  0.068750 -0.358472
			 0.953386  0.031499 -0.300105
			 0.939110 -0.102230  0.328058
			 0.364663 -0.251586  0.896508
			-0.010154 -0.147298  0.989040
			-0.285054 -0.290099  0.913557
			-0.837009 -0.354313  0.416986
			-0.821944 -0.055664  0.566842
			-0.367448  0.146948 -0.918362
			 0.480567  0.116137 -0.869234
			-0.941766  0.288472 -0.172803
			-0.901205  0.286455  0.325228
			 0.937625  0.025047 -0.346745
			 0.456442 -0.048230  0.888445
			 0.909511 -0.001226  0.415677
			-0.236478 -0.037088  0.970929
			 0.271787  0.049527  0.961082
			-0.052690  0.039592  0.997826
			-0.536976  0.237501  0.809475
			-0.954154  0.154303 -0.256478
			-0.306946  0.073550 -0.948881
			 0.447067  0.036306 -0.893763
			-0.720336  0.104377  0.685727
			 0.931532 -0.064096 -0.357966
			 0.861258 -0.054665  0.505219
			 0.344490 -0.080592  0.935324
			-0.114742 -0.011652  0.993327
			-0.800424 -0.284055  0.527859
			-0.889838 -0.217033 -0.401354
			-0.256162 -0.235613 -0.937480
			 0.464014 -0.298818 -0.833906
			-0.218226 -0.326465  0.919673
			 0.943627 -0.230510 -0.237558
			 0.849121 -0.283984  0.445362
			 0.354117 -0.315334  0.880435
			-0.198766 -0.435403  0.878019
			-0.753806 -0.453448  0.475564
			-0.876182 -0.280750 -0.391771
			-0.357033 -0.188060 -0.914965
			 0.295330 -0.051649 -0.953998
			 0.953206 -0.035048 -0.300284
			 0.312577 -0.367066  0.876104
			 0.806883 -0.214222  0.550498
			 0.269687  0.193256  0.943356
			-0.293339  0.315840  0.902329
			-0.828932  0.301010  0.471450
			-0.783619  0.542432 -0.302833
			-0.269870  0.768727 -0.579852
			 0.321030  0.825667 -0.463912
			 0.308919  0.942309 -0.128933
			 0.564295  0.751644  0.341472
			-0.014923  0.897881  0.439985
			-0.149719  0.940019  0.306511
			-0.272201  0.946333  0.174243
			-0.121407  0.992012 -0.034252
			-0.005689  0.999954  0.007718
			-0.107186  0.993906 -0.025747
		</DataArray>
	</PointData>
	<Points>
		<DataArray type="Float32" NumberOfComponents="3" format="ascii">
			-0.007910 -0.215986  0.006727
			-0.007626 -0.220656  0.009211
			-0.002449 -0.219997  0.011313
			-0.001146 -0.213344  0.010171
			-0.014921 -0.218600 -0.002674
			-0.006725 -0.200229  0.000317
			-0.012515 -0.221860 -0.001048
			-0.004434 -0.222551 -0.003877
			-0.000206 -0.216800  0.010833
			 0.003261 -0.217991  0.004345
			-0.001051 -0.220609  0.000938
			 0.006378 -0.202931  0.000057
			 0.000413 -0.200847  0.004778
			 0.009284 -0.210825  0.000991
			-0.011679 -0.202265 -0.006617
			-0.018836 -0.214582 -0.012771
			-0.017478 -0.218499 -0.006906
			-0.000024 -0.193042  0.002647
			-0.006551 -0.192726 -0.001594
			-0.015478 -0.224123 -0.013792
			-0.013303 -0.224317 -0.005668
			-0.008129 -0.224691 -0.006706
			-0.017770 -0.221510 -0.011262
			 0.001868 -0.224298 -0.007232
			 0.006587 -0.220574  0.001491
			 0.002951 -0.192170 -0.000915
			 0.004468 -0.204185 -0.006811
			 0.010507 -0.211944 -0.000510
			 0.008431 -0.215223 -0.003364
			-0.011071 -0.193064 -0.007124
			-0.015217 -0.203276 -0.013098
			-0.015475 -0.215980 -0.014606
			-0.000259 -0.172680 -0.000068
			-0.006823 -0.173226 -0.003445
			-0.010996 -0.216482 -0.017618
			-0.013986 -0.229961 -0.015494
			-0.012003 -0.230595 -0.011258
			-0.013563 -0.230558 -0.011835
			-0.005858 -0.227076 -0.012357
			 0.001397 -0.222978 -0.012485
			 0.002712 -0.223691 -0.008526
			 0.008828 -0.220769 -0.002023
			 0.011970 -0.217909 -0.000353
			 0.010994 -0.215348  0.000016
			 0.001867 -0.193951 -0.009083
			-0.000481 -0.173474 -0.007852
			 0.003205 -0.205550 -0.010886
			 0.005246 -0.218524 -0.006521
			-0.011080 -0.173592 -0.008523
			-0.013137 -0.194144 -0.012679
			-0.011929 -0.194419 -0.015264
			-0.013460 -0.204391 -0.015735
			-0.003606 -0.138671 -0.006897
			-0.003994 -0.138396 -0.002086
			-0.005921 -0.138735 -0.003215
			-0.009391 -0.206315 -0.016778
			-0.007432 -0.217735 -0.016943
			-0.011340 -0.229570 -0.016848
			-0.009525 -0.230975 -0.014238
			-0.011687 -0.231831 -0.013818
			-0.005637 -0.225627 -0.014875
			-0.001408 -0.224261 -0.014082
			 0.002398 -0.218029 -0.011892
			 0.002145 -0.221237 -0.015194
			 0.000381 -0.195015 -0.014047
			-0.002007 -0.174007 -0.013154
			-0.003875 -0.137614 -0.011999
			 0.003667 -0.215494 -0.014771
			 0.001933 -0.205635 -0.014520
			-0.011385 -0.138432 -0.007200
			-0.012471 -0.173988 -0.012905
			-0.010374 -0.174726 -0.016069
			-0.008322 -0.194489 -0.016860
			-0.003396 -0.111626 -0.010232
			-0.003333 -0.112412 -0.005295
			-0.003868 -0.112343 -0.000029
			-0.006620 -0.112625 -0.003022
			-0.002523 -0.219258 -0.015411
			-0.002475 -0.195235 -0.015955
			-0.003646 -0.207232 -0.016545
			 0.001188 -0.221479 -0.016083
			 0.000501 -0.217046 -0.016360
			-0.000877 -0.206664 -0.016104
			-0.004929 -0.174650 -0.016920
			-0.006496 -0.136907 -0.016440
			-0.005519 -0.111611 -0.016035
			-0.011321 -0.111861 -0.006206
			-0.012872 -0.138343 -0.011171
			-0.010715 -0.137091 -0.016043
			-0.004747 -0.079473 -0.012102
			-0.001209 -0.080104 -0.004003
			-0.000866 -0.080026 -0.000506
			-0.002387 -0.078954  0.003664
			-0.006810 -0.078750  0.000876
			-0.010646 -0.110786 -0.015074
			-0.010985 -0.078179 -0.002947
			-0.013303 -0.112016 -0.010510
			-0.009812 -0.077646 -0.011563
			-0.010410 -0.054848 -0.006515
			-0.003490 -0.056762 -0.007413
			-0.000004 -0.058345 -0.000840
			-0.000034 -0.058521  0.002283
			-0.002521 -0.057540  0.006784
			-0.007133 -0.057028  0.006265
			-0.012697 -0.078113 -0.006795
			-0.012536 -0.057287  0.002817
			-0.014160 -0.056552  0.000199
			-0.016058 -0.038250  0.005643
			-0.010020 -0.033253 -0.002485
			-0.002021 -0.034328 -0.002205
			 0.000650 -0.035341  0.002964
			 0.000495 -0.036885  0.006998
			-0.003353 -0.038337  0.011053
			-0.008347 -0.038939  0.011286
			-0.013836 -0.039380  0.009704
			-0.017146 -0.031811  0.006550
			-0.001467 -0.022739  0.000623
			-0.010790 -0.023335  0.000348
			-0.018332 -0.025407  0.007812
			 0.001186 -0.023731  0.005417
			 0.001665 -0.024837  0.009746
			-0.001816 -0.027601  0.013768
			-0.008829 -0.023319  0.014727
			-0.014663 -0.032861  0.012586
			-0.017128 -0.032482  0.011062
			-0.018180 -0.026094  0.012542
			-0.010136 -0.013805  0.001985
			-0.002389 -0.013706  0.001896
			-0.016213 -0.015413  0.007372
			-0.017530 -0.020527  0.011705
			 0.001173 -0.015175  0.006438
			-0.002147 -0.022252  0.015337
			 0.001085 -0.016403  0.011738
			-0.014093 -0.023620  0.014548
			-0.002878 -0.016974  0.014701
			-0.007376 -0.017079  0.015297
			-0.013599 -0.016470  0.013626
			-0.014579 -0.010145  0.007122
			-0.008942 -0.009086  0.001959
			-0.002304 -0.009058  0.002698
			-0.012721 -0.010887  0.012651
			 0.001616 -0.010239  0.006866
			 0.001326 -0.010129  0.011811
			-0.003347 -0.010959  0.014581
			-0.007313 -0.011256  0.014527
			-0.012158 -0.001771  0.013079
			-0.013572 -0.001118  0.005749
			-0.008373 -0.000227  0.002364
			-0.001829  0.000094  0.002433
			-0.007462 -0.002015  0.016311
			 0.002746  0.002051  0.006751
			 0.002292  0.001966  0.012674
			-0.003135 -0.001203  0.016503
			-0.008288  0.001188  0.018312
			-0.014155  0.001931  0.015219
			-0.015673  0.003347  0.005274
			-0.009810  0.003902 -0.000084
			-0.000863  0.006548 -0.000764
			 0.004806  0.006571  0.006164
			-0.002720  0.002322  0.018077
			 0.004243  0.007147  0.014148
			-0.002820  0.007418  0.019482
			-0.009683  0.006805  0.019636
			-0.015720  0.006321  0.015629
			-0.015471  0.009014  0.006233
			-0.009255  0.010074  0.001016
			-0.001860  0.010913  0.000076
			 0.003266  0.010177  0.007155
			 0.003624  0.010242  0.014535
			-0.004068  0.009797  0.016162
			-0.008700  0.009457  0.016509
			-0.012919  0.010186  0.013641
			-0.013785  0.009989  0.007131
			-0.005765  0.008067  0.009114
			-0.001215  0.010295  0.013870
		</DataArray>
	</Points>
			<Polys>
				<DataArray type="Int32" Name="connectivity" format="ascii">
					0 1 2 
					0 2 3 
					4 1 0 
					5 4 0 
					0 3 5 
					4 6 1 
					7 1 6 
					2 1 7 
					2 8 3 
					2 9 8 
					9 2 10 
					2 7 10 
					3 11 12 
					3 13 11 
					8 13 3 
					3 12 5 
					5 14 4 
					15 16 4 
					6 4 16 
					15 4 14 
					17 5 12 
					17 18 5 
					18 14 5 
					19 20 6 
					20 21 6 
					16 22 6 
					19 6 22 
					7 6 21 
					7 23 24 
					7 24 10 
					21 23 7 
					8 9 13 
					24 13 9 
					9 10 24 
					12 11 25 
					25 11 26 
					11 27 28 
					13 27 11 
					11 28 26 
					12 25 17 
					24 27 13 
					18 29 14 
					30 14 29 
					15 14 30 
					16 15 22 
					19 22 15 
					30 31 15 
					19 15 31 
					17 25 32 
					32 18 17 
					32 33 18 
					33 29 18 
					19 31 34 
					34 35 19 
					20 19 35 
					36 21 20 
					37 20 35 
					36 20 37 
					21 38 23 
					21 36 38 
					39 23 38 
					23 40 41 
					23 39 40 
					23 41 24 
					24 41 42 
					24 43 27 
					42 43 24 
					25 44 45 
					25 26 44 
					25 45 32 
					26 46 44 
					28 47 26 
					47 46 26 
					27 43 41 
					27 41 28 
					41 47 28 
					33 48 29 
					49 29 48 
					30 29 49 
					30 49 50 
					30 51 31 
					30 50 51 
					34 31 51 
					32 45 52 
					53 33 32 
					32 52 53 
					53 54 33 
					54 48 33 
					55 56 34 
					34 57 35 
					34 51 55 
					56 57 34 
					35 57 58 
					35 58 59 
					36 35 59 
					36 37 35 
					36 58 38 
					36 59 58 
					38 58 57 
					38 60 61 
					38 57 60 
					39 38 61 
					62 39 63 
					40 39 62 
					61 63 39 
					41 40 47 
					40 62 47 
					43 42 41 
					45 44 64 
					46 64 44 
					45 65 66 
					45 64 65 
					45 66 52 
					67 46 62 
					68 46 67 
					46 68 64 
					47 62 46 
					54 69 48 
					70 48 69 
					49 48 70 
					70 50 49 
					70 71 50 
					72 50 71 
					51 50 72 
					51 72 55 
					52 66 73 
					74 53 52 
					52 73 74 
					74 75 53 
					75 54 53 
					75 76 54 
					76 69 54 
					77 56 55 
					55 72 78 
					77 55 79 
					55 78 79 
					56 60 57 
					61 60 56 
					61 56 77 
					61 80 63 
					77 80 61 
					62 63 67 
					63 80 81 
					63 81 67 
					64 68 82 
					83 65 64 
					64 82 78 
					83 64 78 
					84 66 65 
					84 65 83 
					85 73 66 
					85 66 84 
					67 81 82 
					67 82 68 
					76 86 69 
					87 69 86 
					70 69 87 
					87 71 70 
					83 71 88 
					78 71 83 
					78 72 71 
					87 88 71 
					89 90 73 
					91 74 73 
					89 73 85 
					91 73 90 
					91 75 74 
					91 92 75 
					92 76 75 
					92 93 76 
					93 86 76 
					77 81 80 
					79 81 77 
					78 82 79 
					79 82 81 
					83 88 84 
					94 85 84 
					94 84 88 
					89 85 94 
					93 95 86 
					96 86 95 
					87 86 96 
					96 88 87 
					96 94 88 
					89 97 98 
					99 90 89 
					89 98 99 
					89 94 97 
					91 90 100 
					99 100 90 
					101 92 91 
					91 100 101 
					92 101 102 
					102 93 92 
					102 103 93 
					103 95 93 
					104 97 94 
					104 94 96 
					96 95 104 
					104 95 105 
					103 105 95 
					106 98 97 
					106 97 104 
					107 108 98 
					99 98 108 
					98 106 107 
					109 100 99 
					99 108 109 
					101 100 110 
					109 110 100 
					101 110 111 
					101 111 102 
					112 103 102 
					102 111 112 
					112 113 103 
					113 105 103 
					104 105 106 
					106 105 114 
					113 114 105 
					106 114 107 
					115 108 107 
					107 114 115 
					116 108 117 
					118 117 108 
					116 109 108 
					118 108 115 
					116 110 109 
					111 110 119 
					116 119 110 
					112 111 120 
					111 119 120 
					121 113 112 
					112 120 121 
					121 122 113 
					123 114 113 
					122 123 113 
					114 123 124 
					124 115 114 
					125 118 115 
					125 115 124 
					116 117 126 
					127 119 116 
					116 126 127 
					128 117 118 
					128 126 117 
					129 128 118 
					129 118 125 
					120 119 130 
					127 130 119 
					131 120 132 
					121 120 131 
					120 130 132 
					131 122 121 
					122 133 123 
					131 134 122 
					122 134 135 
					135 133 122 
					123 133 125 
					124 123 125 
					125 133 136 
					125 136 129 
					137 126 128 
					137 138 126 
					127 126 138 
					139 130 127 
					127 138 139 
					128 136 140 
					129 136 128 
					128 140 137 
					132 130 141 
					139 141 130 
					131 132 134 
					134 132 142 
					132 141 142 
					135 136 133 
					134 143 144 
					134 144 135 
					134 142 143 
					144 136 135 
					144 140 136 
					137 140 145 
					137 145 146 
					146 138 137 
					146 147 138 
					139 138 147 
					148 141 139 
					139 147 148 
					149 145 140 
					149 140 144 
					142 141 150 
					148 150 141 
					151 143 142 
					142 150 151 
					151 152 143 
					152 144 143 
					152 149 144 
					153 145 149 
					153 154 145 
					146 145 154 
					146 154 155 
					155 147 146 
					155 156 147 
					148 147 156 
					148 157 158 
					148 156 157 
					148 158 150 
					159 153 149 
					159 149 152 
					151 150 158 
					160 152 151 
					151 158 160 
					160 159 152 
					161 153 159 
					161 162 153 
					162 154 153 
					162 163 154 
					155 154 163 
					155 163 164 
					164 156 155 
					164 165 156 
					157 156 165 
					166 158 157 
					157 165 166 
					158 167 168 
					166 167 158 
					158 168 160 
					161 159 160 
					160 168 161 
					169 162 161 
					168 169 161 
					169 170 162 
					170 163 162 
					164 163 171 
					170 171 163 
					172 165 164 
					164 171 172 
					173 165 172 
					166 165 173 
					167 166 173 
					174 168 167 
					174 167 173 
					168 174 169 
					174 170 169 
					173 171 170 
					174 173 170 
					173 172 171 
				</DataArray>
				<DataArray type="Int32" Name="offsets" format="ascii">
					3 6 9 12 15 18 21 24 27 30 33 36 39 42 45 48 51 54 57 60 63 66 69 72 75 78 81 84 87 90 93 96 99 102 105 108 111 114 117 120 123 126 129 132 135 138 141 144 147 150 153 156 159 162 165 168 171 174 177 180 183 186 189 192 195 198 201 204 207 210 213 216 219 222 225 228 231 234 237 240 243 246 249 252 255 258 261 264 267 270 273 276 279 282 285 288 291 294 297 300 303 306 309 312 315 318 321 324 327 330 333 336 339 342 345 348 351 354 357 360 363 366 369 372 375 378 381 384 387 390 393 396 399 402 405 408 411 414 417 420 423 426 429 432 435 438 441 444 447 450 453 456 459 462 465 468 471 474 477 480 483 486 489 492 495 498 501 504 507 510 513 516 519 522 525 528 531 534 537 540 543 546 549 552 555 558 561 564 567 570 573 576 579 582 585 588 591 594 597 600 603 606 609 612 615 618 621 624 627 630 633 636 639 642 645 648 651 654 657 660 663 666 669 672 675 678 681 684 687 690 693 696 699 702 705 708 711 714 717 720 723 726 729 732 735 738 741 744 747 750 753 756 759 762 765 768 771 774 777 780 783 786 789 792 795 798 801 804 807 810 813 816 819 822 825 828 831 834 837 840 843 846 849 852 855 858 861 864 867 870 873 876 879 882 885 888 891 894 897 900 903 906 909 912 915 918 921 924 927 930 933 936 939 942 945 948 951 954 957 960 963 966 969 972 975 978 981 984 987 990 993 996 999 1002 1005 1008 1011 1014 1017 1020 1023 1026 1029 1032 1035 1038 
				</DataArray>
			</Polys>
		</Piece>
	</PolyData>
</VTKFile>
