<?xml version="1.0"?>
<VTKFile type="PolyData" version="0.1" byte_order="LittleEndian" compressor="vtkZLibDataCompressor">
	<PolyData>
		<Piece NumberOfPoints="770" NumberOfVerts="0" NumberOfLines="0" NumberOfStrips="0" NumberOfPolys="1536">
		<PointData Normals="Normals">
		<DataArray type="Float32" Name="Normals" NumberOfComponents="3" format="ascii">
			-0.494447 -0.848470  0.188737
			-0.108751 -0.325948  0.939112
			-0.823914 -0.445633  0.350110
			-0.580488 -0.393129 -0.713080
			-0.220445 -0.545684 -0.808476
			 0.272524 -0.913045 -0.303445
			-0.067756 -0.603317  0.794618
			-0.270558 -0.239505  0.932435
			-0.342798 -0.093181  0.934776
			-0.378282  0.107927  0.919377
			-0.857233 -0.236417  0.457448
			-0.459185 -0.208510 -0.863523
			-0.551804 -0.196050 -0.810603
			 0.184150 -0.131547 -0.974055
			 0.224007 -0.334890 -0.915243
			 0.783692 -0.540094 -0.306798
			 0.347844 -0.472454  0.809810
			-0.039525 -0.194621  0.980082
			-0.215671 -0.036151  0.975797
			-0.375277  0.241236  0.894970
			-0.312574  0.243110  0.918257
			-0.252101  0.079662  0.964417
			-0.694476 -0.121743  0.709142
			-0.615059 -0.143864 -0.775246
			 0.135737  0.008320 -0.990710
			 0.098906  0.066762 -0.992855
			 0.315630 -0.069718 -0.946318
			 0.361081 -0.086784 -0.928488
			 0.873295 -0.415669 -0.254117
			 0.565929 -0.391023  0.725828
			 0.049291 -0.202192  0.978105
			-0.240075  0.018999  0.970568
			-0.415457  0.259929  0.871684
			-0.417677  0.320862  0.850055
			-0.156961  0.037096  0.986908
			-0.189863  0.101609  0.976539
			-0.137228 -0.007951  0.990508
			-0.339957 -0.067360  0.938026
			-0.641510 -0.020713  0.766835
			-0.739919 -0.087781 -0.666945
			 0.089523  0.072606 -0.993335
			 0.279640 -0.075164 -0.957158
			 0.181212  0.013950 -0.983345
			 0.332852 -0.210150 -0.919264
			 0.530610 -0.250957 -0.809613
			 0.832236 -0.553409 -0.033496
			 0.558562 -0.425132  0.712230
			 0.042507 -0.068518  0.996744
			-0.297594  0.227212  0.927261
			-0.409039  0.412058  0.814184
			-0.342134  0.401301  0.849648
			-0.120546  0.201421  0.972059
			-0.093177  0.012035  0.995577
			-0.055065  0.054741  0.996981
			 0.034013  0.119775  0.992218
			-0.150959  0.007057  0.988515
			 0.047545  0.083641  0.995361
			-0.590083  0.094747  0.801764
			-0.799324  0.030335 -0.600134
			 0.102552 -0.009718 -0.994680
			 0.117099  0.058811 -0.991377
			 0.208792 -0.127436 -0.969622
			 0.111966 -0.035768 -0.993068
			 0.454810 -0.379765 -0.805560
			 0.747278 -0.530994 -0.399527
			 0.735761 -0.677008 -0.017764
			 0.704579 -0.488882  0.514357
			 0.202353  0.077944  0.976206
			-0.174298  0.425055  0.888228
			-0.326515  0.563969  0.758503
			-0.219087  0.530537  0.818860
			 0.036283  0.298135  0.953834
			 0.149194  0.176539  0.972921
			-0.082443  0.143990  0.986139
			-0.033894  0.178045  0.983438
			 0.064920  0.215374  0.974371
			 0.138739  0.229968  0.963258
			 0.194060  0.060498  0.979122
			 0.099020  0.087861  0.991199
			 0.219154  0.032693  0.975142
			-0.141246  0.057524  0.988302
			-0.510265  0.100792  0.854091
			-0.650307  0.130232 -0.748426
			 0.044192 -0.057129 -0.997388
			 0.136515 -0.029426 -0.990201
			 0.057803  0.034567 -0.997729
			 0.207109 -0.261187 -0.942808
			-0.012474 -0.089808 -0.995881
			 0.586080 -0.614188 -0.528472
			 0.669248 -0.678187 -0.303594
			 0.676725 -0.730643 -0.090573
			 0.758827 -0.446254  0.474383
			 0.429872  0.096693  0.897697
			-0.009453  0.498227  0.866995
			-0.266727  0.676165  0.686774
			-0.171022  0.644019  0.745648
			 0.194634  0.354393  0.914616
			 0.321548  0.184011  0.928841
			 0.252632  0.220146  0.942185
			 0.067156  0.107773  0.991905
			 0.110428  0.051058  0.992572
			 0.102458 -0.012864  0.994654
			 0.087102 -0.034335  0.995607
			 0.309364 -0.247105  0.918277
			 0.181697 -0.367730  0.912009
			 0.195398 -0.144983  0.969948
			-0.639456  0.109086  0.761049
			-0.134687 -0.056964 -0.989250
			-0.854872  0.211935 -0.473580
			 0.076323 -0.142934 -0.986785
			 0.091799 -0.051772 -0.994431
			-0.086847  0.021325 -0.995993
			 0.301616 -0.501504 -0.810877
			-0.200822 -0.161630 -0.966202
			 0.514059 -0.675704 -0.528363
			 0.452047 -0.719091 -0.527790
			 0.614406 -0.774800 -0.148966
			 0.787567 -0.416015  0.454609
			 0.617035  0.022834  0.786604
			 0.108855  0.508092  0.854397
			-0.204406  0.721956  0.661058
			-0.158699  0.660208  0.734126
			 0.218321  0.367061  0.904214
			 0.431928  0.170993  0.885550
			 0.370903  0.157499  0.915219
			 0.117024 -0.019092  0.992946
			 0.146893 -0.549677  0.822361
			 0.131336 -0.632290  0.763518
			 0.025338 -0.559076  0.828729
			-0.003943 -0.442053  0.896980
			 0.283294 -0.603449  0.745382
			 0.180666 -0.865578  0.467048
			 0.125309 -0.969443  0.210899
			 0.217922 -0.319944  0.922034
			-0.360081  0.003242  0.932916
			-0.066371 -0.135958 -0.988489
			-0.182490 -0.068842 -0.980795
			-0.834703  0.122386 -0.536928
			-0.806629  0.173574  0.564997
			 0.029641 -0.198842 -0.979583
			-0.034174 -0.117517 -0.992483
			-0.338105 -0.040586 -0.940233
			 0.185669 -0.581590 -0.792010
			-0.408090 -0.175214 -0.895970
			 0.404077 -0.767120 -0.498246
			 0.270454 -0.730827 -0.626695
			 0.554765 -0.821141 -0.134025
			 0.749645 -0.404149  0.524114
			 0.588322  0.004987  0.808612
			 0.082408  0.557719  0.825929
			-0.260085  0.723856  0.639053
			-0.092246  0.647544  0.756424
			 0.236947  0.355615  0.904099
			 0.392006  0.188414  0.900462
			 0.418735  0.090590  0.903579
			 0.144571 -0.048417  0.988309
			-0.069365 -0.326172  0.942762
			 0.173660 -0.977164  0.122445
			 0.172861 -0.923107  0.343500
			 0.056571 -0.740288  0.669906
			-0.033401 -0.561991  0.826469
			 0.055635 -0.751356  0.657547
			-0.063589 -0.960730  0.270099
			 0.035516 -0.999263  0.014547
			 0.221195 -0.971206  0.088501
			 0.061157 -0.460527  0.885537
			-0.060772 -0.195234 -0.978872
			-0.146688 -0.086145 -0.985425
			-0.192718 -0.377529 -0.905722
			-0.680952  0.601154  0.418233
			-0.611432 -0.283513 -0.738763
			-0.656423  0.665811  0.354689
			-0.433315  0.703465  0.563360
			-0.482104  0.253362  0.838680
			-0.620195  0.522279  0.585305
			-0.119306 -0.034168  0.992269
			-0.057196 -0.235340 -0.970229
			-0.232207 -0.149919 -0.961044
			-0.529911  0.014220 -0.847934
			 0.061487 -0.651735 -0.755950
			-0.485825 -0.120869 -0.865658
			 0.379863 -0.813333 -0.440675
			 0.202353 -0.738577 -0.643084
			 0.498956 -0.857745 -0.123762
			 0.650864 -0.426086  0.628352
			 0.577025 -0.045711  0.815446
			 0.145235  0.533918  0.832969
			-0.234120  0.725972  0.646647
			-0.129323  0.631787  0.764278
			 0.189429  0.379887  0.905429
			 0.375700  0.190625  0.906924
			 0.403889  0.039380  0.913960
			 0.215852 -0.180987  0.959506
			-0.090653 -0.330483  0.939448
			-0.186269 -0.400431  0.897195
			 0.394057 -0.873072  0.287164
			 0.273587 -0.745094  0.608264
			 0.101574 -0.647841  0.754974
			-0.150333 -0.446483  0.882073
			-0.109216 -0.386347  0.915864
			-0.220223 -0.868377  0.444324
			-0.267699 -0.631221  0.727940
			 0.066327 -0.579790  0.812062
			 0.325614 -0.345030  0.880301
			-0.074413 -0.234016 -0.969381
			-0.209746 -0.189903 -0.959137
			-0.308395 -0.370008 -0.876348
			-0.227621 -0.650574 -0.724529
			-0.085351  0.613818  0.784820
			-0.033142  0.743566  0.667841
			-0.677597  0.716768  0.164641
			-0.488590 -0.470740 -0.734632
			 0.040220  0.714362  0.698619
			 0.054573  0.631141  0.773746
			-0.091196  0.305166  0.947923
			-0.078571  0.399968  0.913155
			-0.134799 -0.234893 -0.962629
			-0.407713 -0.077138 -0.909846
			-0.590996  0.083597 -0.802331
			 0.069888 -0.641594 -0.763854
			-0.496547 -0.121633 -0.859446
			 0.409973 -0.775996 -0.479324
			 0.176622 -0.735511 -0.654086
			 0.411833 -0.881557 -0.230760
			 0.656626 -0.477466  0.583839
			 0.591173 -0.096846  0.800709
			 0.251082  0.472529  0.844792
			-0.158815  0.697428  0.698836
			-0.126899  0.594822  0.793778
			 0.128956  0.371355  0.919492
			 0.326226  0.214536  0.920625
			 0.392818 -0.007940  0.919582
			 0.222447 -0.260674  0.939450
			 0.037846 -0.457944  0.888175
			-0.064844 -0.505389  0.860452
			-0.159933 -0.589511  0.791769
			 0.222783 -0.051910  0.973485
			 0.161462 -0.358987  0.919270
			-0.120706 -0.475546  0.871370
			-0.300625 -0.603626  0.738418
			-0.259128  0.021014  0.965615
			-0.385404  0.348970  0.854215
			-0.184073  0.403393  0.896321
			-0.067112  0.524926  0.848498
			-0.121598  0.779945  0.613922
			-0.194224 -0.341591 -0.919561
			-0.136368 -0.266666 -0.954093
			-0.431016 -0.389267 -0.814062
			-0.331073 -0.573232 -0.749530
			-0.193899 -0.723255 -0.662802
			 0.039289  0.482183  0.875189
			 0.163602  0.659834  0.733385
			 0.120819  0.702377  0.701476
			-0.123615  0.892245  0.434302
			-0.547733  0.836530  0.014369
			-0.580332  0.124615 -0.804789
			 0.163813  0.696403  0.698705
			 0.076006  0.691962  0.717922
			 0.233824  0.673555  0.701178
			-0.208078  0.663462  0.718694
			-0.270996 -0.214974 -0.938268
			-0.492977 -0.064909 -0.867618
			-0.635342  0.081215 -0.767948
			 0.040120 -0.610060 -0.791338
			-0.574688 -0.090364 -0.813369
			 0.337315 -0.795096 -0.504025
			 0.165365 -0.694076 -0.700651
			 0.383941 -0.906624 -0.174991
			 0.586982 -0.484191  0.648854
			 0.563292 -0.045461  0.825006
			 0.308427  0.458438  0.833491
			 0.039263  0.648039  0.760595
			-0.095925  0.547759  0.831119
			 0.035981  0.341845  0.939067
			 0.145964  0.231264  0.961879
			 0.296507  0.006899  0.955006
			 0.346640 -0.347898  0.871096
			 0.286889 -0.525638  0.800874
			 0.270192 -0.663818  0.697382
			 0.251948 -0.772105  0.583417
			 0.055038 -0.969523  0.238736
			 0.059615  0.572832  0.817502
			-0.055623  0.126288  0.990433
			-0.234084 -0.443246  0.865296
			-0.211963 -0.895373  0.391637
			-0.390088  0.816139  0.426320
			-0.315933  0.833832  0.452670
			-0.167858  0.858591  0.484401
			-0.233074  0.970469  0.062175
			-0.067591  0.997351  0.026872
			-0.215084 -0.401209 -0.890377
			-0.372932 -0.511218 -0.774325
			-0.260499 -0.291746 -0.920339
			-0.454024 -0.447238 -0.770610
			-0.278071 -0.608726 -0.743054
			-0.125898 -0.014274 -0.991941
			 0.036045  0.866774  0.497397
			 0.280455  0.751156  0.597587
			 0.336111  0.580199  0.741888
			 0.154031  0.786463  0.598122
			 0.212048  0.969828  0.120287
			-0.311385  0.879537 -0.359798
			 0.288655  0.618892  0.730514
			 0.445344  0.512036  0.734498
			 0.396572  0.471490  0.787672
			-0.210877  0.977512  0.000717
			-0.376617 -0.204673 -0.903476
			-0.537828 -0.054844 -0.841269
			-0.657056  0.098506 -0.747378
			-0.055988 -0.603403 -0.795469
			-0.549878 -0.062256 -0.832921
			 0.196740 -0.835417 -0.513197
			 0.015756 -0.767574 -0.640767
			 0.231270 -0.957740 -0.171020
			 0.598849 -0.480887  0.640412
			 0.514798 -0.095204  0.852009
			 0.177157  0.443838  0.878421
			 0.036193  0.570674  0.820379
			-0.004530  0.439818  0.898076
			 0.040642  0.273858  0.960911
			 0.080964  0.191081  0.978229
			 0.110288  0.109672  0.987830
			 0.272098 -0.123961  0.954252
			 0.445960 -0.422690  0.788957
			 0.420613 -0.613708  0.668167
			 0.472077 -0.684197  0.555894
			 0.682567 -0.638423  0.355695
			 0.280346 -0.923903 -0.260402
			 0.034875  0.910579 -0.411862
			-0.081111 -0.374084  0.923841
			 0.084074  0.416490  0.905245
			 0.025072  0.989620 -0.141503
			-0.018778 -0.941414  0.336729
			-0.309897  0.908597 -0.280027
			-0.237444  0.925192 -0.296041
			-0.228147  0.866620 -0.443755
			-0.086518  0.826929 -0.555610
			-0.135557  0.598919 -0.789253
			-0.363721 -0.612655 -0.701685
			-0.268678 -0.396359 -0.877902
			-0.554874 -0.429873 -0.712267
			-0.327257 -0.263532 -0.907443
			-0.156909 -0.438968 -0.884696
			-0.282380 -0.183639 -0.941562
			 0.346773  0.208639 -0.914450
			 0.083724  0.996429 -0.010923
			 0.402273  0.888861  0.219323
			 0.601615  0.529632  0.597954
			 0.447658  0.879419  0.161938
			 0.626216  0.725428  0.285669
			 0.545405  0.225222  0.807347
			 0.765537  0.563278  0.310919
			-0.015298  0.885313 -0.464743
			-0.440197 -0.182708 -0.879115
			-0.582687 -0.034815 -0.811951
			-0.666828  0.109784 -0.737080
			-0.043548 -0.610691 -0.790671
			-0.489668 -0.148312 -0.859202
			 0.046636 -0.787489 -0.614561
			-0.103923 -0.758538 -0.643288
			 0.468500 -0.823974 -0.318707
			 0.615127 -0.477544  0.627351
			 0.407523 -0.082124  0.909495
			 0.059783  0.350229  0.934754
			-0.130261  0.486233  0.864065
			-0.038190  0.374852  0.926298
			 0.035751  0.284300  0.958069
			 0.084359  0.272047  0.958579
			 0.222654  0.112079  0.968433
			 0.236874  0.009715  0.971492
			 0.309362 -0.233234  0.921898
			 0.347390 -0.504567  0.790400
			 0.387526 -0.612353  0.689092
			 0.754942 -0.296236  0.585070
			 0.853994  0.520278 -0.002399
			-0.105622 -0.983726 -0.145352
			 0.657430  0.651235 -0.379050
			 0.571816  0.292612 -0.766423
			 0.024132 -0.793890 -0.607583
			 0.009968  0.526387 -0.850187
			 0.159269  0.475596 -0.865125
			-0.105383  0.407176 -0.907250
			-0.038581 -0.271026  0.961799
			 0.144875  0.347715  0.926340
			-0.101035  0.991382 -0.083383
			-0.482722  0.225807 -0.846162
			-0.101593 -0.833638  0.542887
			-0.061620  0.742718 -0.666763
			-0.068717  0.658283 -0.749627
			-0.146552  0.625514 -0.766326
			-0.164502  0.652666 -0.739572
			-0.224739  0.681538 -0.696418
			-0.353517 -0.657860 -0.665016
			-0.460341 -0.645958 -0.608953
			-0.339314 -0.404001 -0.849499
			-0.521957 -0.096846 -0.847456
			-0.392582 -0.249863 -0.885126
			 0.539777  0.254958 -0.802270
			 0.377032  0.416690 -0.827174
			 0.211429  0.959089 -0.188273
			 0.397333  0.831841  0.387513
			 0.489612  0.444493  0.750137
			 0.804424  0.464787  0.369966
			 0.105191  0.589377 -0.800980
			 0.101746  0.922994 -0.371120
			-0.531404 -0.165430 -0.830809
			-0.644474 -0.050471 -0.762958
			-0.666998  0.020123 -0.744788
			-0.066355 -0.705169 -0.705927
			-0.386997 -0.439878 -0.810395
			 0.093072 -0.818924 -0.566305
			 0.219118 -0.701566 -0.678080
			 0.023739 -0.916941 -0.398315
			 0.542181 -0.833867 -0.103466
			 0.682323 -0.603565  0.412487
			 0.389118 -0.189877  0.901407
			 0.030055  0.223046  0.974345
			-0.215081  0.431659  0.876020
			-0.220497  0.420040  0.880311
			-0.095009  0.327954  0.939904
			-0.072686  0.350104  0.933887
			 0.021188  0.200010  0.979565
			 0.142927 -0.079092  0.986568
			 0.141940 -0.130748  0.981202
			 0.178421 -0.307970  0.934516
			 0.287201 -0.367106  0.884731
			 0.545553 -0.186999  0.816947
			 0.623910  0.710121  0.326289
			 0.269454  0.961100  0.060672
			 0.016954 -0.987590 -0.156139
			 0.055649  0.973858  0.220238
			 0.423373  0.836106 -0.348829
			 0.105434  0.789061 -0.605199
			 0.046070  0.629818 -0.775375
			-0.036079  0.321893 -0.946088
			 0.023702 -0.569873 -0.821391
			 0.078156  0.662198 -0.745242
			-0.038657  0.745020 -0.665922
			-0.356829 -0.123308 -0.925996
			-0.090117 -0.205823  0.974431
			 0.123363  0.515040  0.848243
			-0.079510  0.996794 -0.008946
			-0.669026  0.211721 -0.712446
			-0.503008 -0.371821 -0.780213
			-0.016290 -0.970302  0.241347
			 0.173288  0.900478 -0.398886
			 0.109875  0.912081 -0.395013
			-0.018414  0.922909 -0.384577
			-0.070983  0.930803 -0.358562
			-0.107189  0.944508 -0.310509
			-0.418913 -0.674370 -0.608060
			-0.403612 -0.672517 -0.620337
			-0.435223 -0.452405 -0.778403
			-0.481133 -0.182658 -0.857407
			-0.524477 -0.272375 -0.806682
			 0.330243  0.905560  0.266271
			 0.441037  0.657783  0.610580
			 0.598072  0.687363  0.412119
			 0.125742  0.645002 -0.753765
			 0.303800  0.936637  0.174401
			-0.649762 -0.184175 -0.737488
			-0.709201 -0.116331 -0.695343
			-0.622663 -0.267955 -0.735181
			-0.169478 -0.882671 -0.438371
			-0.403742 -0.739587 -0.538520
			-0.173749 -0.944731 -0.278017
			 0.011484 -0.997948  0.062990
			 0.251460 -0.967765  0.014099
			 0.495977 -0.775324  0.390998
			 0.471148 -0.402541  0.784844
			 0.133553  0.086827  0.987231
			-0.067620  0.354303  0.932683
			-0.220560  0.320966  0.921050
			-0.308414  0.332072  0.891409
			-0.282867  0.350178  0.892951
			-0.250738  0.207233  0.945613
			-0.149968  0.007740  0.988661
			-0.073214 -0.082615  0.993889
			-0.065815  0.014757  0.997723
			 0.042792  0.088459  0.995160
			 0.203610  0.335443  0.919794
			 0.333012  0.704691  0.626510
			 0.154564  0.931403  0.329542
			 0.043062  0.771873  0.634316
			 0.112438 -0.887169 -0.447536
			-0.115906  0.889067  0.442860
			-0.087982  0.776606  0.623812
			 0.181494  0.983292  0.014040
			-0.051262  0.877992 -0.475922
			-0.088454 -0.750683 -0.654714
			-0.139171  0.977209 -0.160291
			 0.311164 -0.652120  0.691315
			 0.214051  0.490986  0.844461
			-0.108114  0.992388  0.058970
			-0.804878  0.240753 -0.542410
			-0.621658 -0.504867 -0.598875
			-0.181876 -0.860746 -0.475434
			 0.239536 -0.920316 -0.309259
			 0.359357  0.904889  0.228120
			 0.239467  0.947489  0.211944
			 0.130651  0.975069  0.179363
			 0.071008  0.967709  0.241863
			-0.170349  0.926805  0.334685
			-0.424762 -0.728495 -0.537469
			-0.415593 -0.680615 -0.603362
			-0.509191 -0.451381 -0.732789
			-0.380188 -0.484965 -0.787570
			-0.644295 -0.272196 -0.714698
			 0.417493  0.726541  0.545745
			 0.659380  0.689600  0.299450
			 0.401155  0.456636 -0.794077
			 0.381734  0.807807  0.449140
			-0.722293 -0.205980 -0.660201
			-0.710545 -0.235136 -0.663202
			-0.597017 -0.519274 -0.611494
			-0.430812 -0.795986 -0.425215
			-0.217777 -0.971097 -0.097695
			 0.214622 -0.966964  0.137544
			 0.346051 -0.891875  0.291218
			 0.563800 -0.681548  0.466499
			 0.519606 -0.421728  0.743072
			 0.240619  0.037195  0.969907
			 0.069970  0.210568  0.975072
			 0.022882  0.409232  0.912143
			 0.017372  0.421960  0.906448
			-0.013391  0.373132  0.927682
			 0.025544  0.420501  0.906932
			 0.085293  0.461065  0.883258
			 0.037773  0.539310  0.841260
			 0.056036  0.670352  0.739924
			-0.092974  0.660856  0.744731
			-0.103792  0.751730  0.651252
			 0.136821 -0.893079 -0.428590
			-0.168654  0.731996  0.660105
			-0.087260  0.771610  0.630082
			-0.036593  0.890536  0.453439
			-0.225142  0.836830  0.499026
			 0.573072 -0.740200  0.351701
			 0.447516  0.416104  0.791573
			-0.234422  0.968104  0.088435
			-0.891617  0.219938 -0.395785
			-0.662592 -0.619706 -0.420638
			-0.233335 -0.926937 -0.293840
			 0.109246 -0.970482 -0.215013
			 0.320996 -0.893604 -0.313742
			 0.348394  0.851819  0.391187
			 0.255808  0.857344  0.446680
			 0.084925  0.868103  0.489066
			-0.120056  0.833919  0.538670
			-0.126551  0.854604  0.503623
			-0.394941 -0.756214 -0.521692
			-0.472760 -0.669906 -0.572471
			-0.638883 -0.456751 -0.619037
			-0.218319 -0.613717 -0.758741
			-0.728608 -0.311517 -0.609990
			 0.643860  0.757046 -0.111024
			 0.444172  0.034158 -0.895290
			 0.358481  0.925485 -0.122352
			-0.802451 -0.259049 -0.537556
			-0.711027 -0.380864 -0.591086
			-0.581727 -0.567857 -0.582351
			-0.394580 -0.795974 -0.459056
			 0.059273 -0.970873 -0.232150
			 0.719180 -0.678608  0.149233
			 0.746384 -0.662438 -0.063931
			 0.943952 -0.320733  0.078004
			 0.926809 -0.215664  0.307430
			 0.939259 -0.057803  0.338306
			 0.940024  0.134300  0.313558
			 0.868186  0.307622  0.389386
			 0.762712  0.421830  0.490234
			 0.899625  0.252339  0.356372
			 0.511669  0.568184  0.644485
			 0.883401  0.372161  0.284780
			 0.714666  0.397999  0.575196
			 0.545148  0.232554  0.805439
			 0.644231  0.074942  0.761151
			 0.140607  0.845819  0.514606
			 0.746354  0.601257  0.285386
			 0.843269  0.428949  0.323883
			-0.160924  0.826469  0.539494
			 0.114167  0.838878  0.532213
			 0.306337  0.869170  0.388202
			 0.022562  0.958238  0.285081
			 0.638953 -0.750429  0.169102
			 0.690593  0.253929  0.677200
			 0.092006  0.990686  0.100383
			-0.631167  0.594559 -0.498124
			-0.537107 -0.685929 -0.490935
			 0.074585 -0.949313 -0.305354
			 0.122549 -0.991074 -0.052473
			 0.255135 -0.949906 -0.180513
			 0.096935  0.968430  0.229667
			 0.032270  0.856493  0.515149
			-0.088061  0.816739  0.570248
			-0.055567  0.817451  0.573311
			 0.309904  0.920933  0.236310
			-0.434593 -0.743281 -0.508588
			-0.603419 -0.632451 -0.485686
			-0.703769 -0.502617 -0.502081
			-0.334873 -0.643327 -0.688470
			-0.782436 -0.343025 -0.519738
			 0.008293 -0.019846 -0.999769
			-0.605786  0.715217 -0.348553
			-0.750312 -0.302343 -0.587895
			-0.647892 -0.422689 -0.633695
			-0.527314 -0.602603 -0.599007
			-0.130391 -0.830361 -0.541755
			 0.827941 -0.376404 -0.415734
			 0.691444 -0.461769 -0.555585
			 0.520820 -0.271673 -0.809284
			 0.488818 -0.454091 -0.744888
			 0.749500 -0.066815 -0.658624
			 0.679027  0.096981 -0.727679
			 0.668046  0.087375 -0.738972
			 0.780835 -0.276904 -0.560018
			 0.784725 -0.354127 -0.508725
			 0.872534  0.455503  0.176639
			 0.854854 -0.260202 -0.448910
			 0.298280  0.937645  0.178471
			 0.524888  0.830439  0.186718
			 0.821085  0.565886  0.074781
			 0.542110  0.747462 -0.383950
			 0.796291  0.456402  0.397011
			 0.606038 -0.791215  0.081840
			 0.134624  0.988969 -0.061781
			 0.036333  0.733982 -0.678196
			-0.337312 -0.563074 -0.754433
			 0.131451 -0.941922 -0.309037
			 0.353312 -0.934837 -0.035363
			-0.517415  0.756610  0.399779
			-0.134210  0.762117  0.633376
			 0.214095  0.806203  0.551543
			-0.000773  0.580795  0.814049
			 0.481128  0.824093  0.298975
			 0.915594  0.401398  0.023812
			-0.559477 -0.662226 -0.498440
			-0.673598 -0.605294 -0.424129
			-0.745484 -0.498090 -0.442900
			-0.647497 -0.570520 -0.505227
			-0.692476 -0.318411 -0.647373
			-0.968418 -0.131426 -0.211883
			-0.664586 -0.238474 -0.708135
			-0.605242 -0.374722 -0.702329
			-0.187358 -0.667852 -0.720327
			-0.420507 -0.224396 -0.879102
			-0.442380 -0.452680 -0.774197
			-0.278343  0.015091 -0.960363
			-0.206638  0.179957 -0.961726
			-0.249900 -0.110885 -0.961902
			-0.033140 -0.357635 -0.933273
			 0.140173 -0.241856 -0.960134
			 0.901502  0.097087 -0.421744
			 0.727524  0.684588 -0.045266
			 0.807221  0.586442 -0.066934
			 0.773537  0.361789 -0.520335
			 0.332027  0.084427 -0.939484
			 0.366076 -0.233084 -0.900922
			 0.919353  0.204348  0.336202
			 0.323019  0.908668  0.264541
			 0.733176 -0.600787  0.318603
			 0.720760  0.648425 -0.245052
			 0.378535 -0.362378 -0.851700
			-0.205694 -0.944635 -0.255647
			 0.114728 -0.992604 -0.039673
			-0.597381  0.468647  0.650773
			-0.993948  0.075736 -0.079574
			 0.369546  0.842962  0.390962
			 0.193945  0.882875  0.427688
			-0.475579  0.804797  0.355143
			 0.609763  0.682773  0.402505
			 0.935478 -0.005100  0.353347
			 0.844365 -0.507700 -0.171137
			-0.686168 -0.638146 -0.349204
			-0.690996 -0.607238 -0.392156
			-0.619979 -0.470431 -0.627950
			-0.613972 -0.272448 -0.740818
			-0.587136 -0.638726 -0.497293
			-0.662804 -0.680957 -0.311429
			-0.732787 -0.386542 -0.560008
			-0.653203 -0.200305 -0.730208
			-0.646392 -0.140799 -0.749902
			-0.540788 -0.005664 -0.841140
			-0.222353 -0.488624 -0.843686
			-0.401279 -0.339023 -0.850905
			 0.038361 -0.434520 -0.899845
			 0.136205 -0.667658 -0.731902
			 0.326379 -0.898340 -0.294045
			 0.985001  0.165730  0.048018
			 0.980651 -0.071413  0.182274
			 0.815599 -0.538750  0.211062
			 0.697820 -0.670789 -0.251176
			-0.950085  0.204514 -0.235611
			-0.793224 -0.346847 -0.500493
			 0.383656  0.887659  0.254694
			 0.184550  0.979053  0.085998
			-0.179511  0.946180 -0.269294
			-0.569875  0.604076 -0.557076
			 0.675504  0.718453  0.165891
			 0.852894 -0.281986  0.439382
			 0.612474 -0.773487  0.163077
			-0.507814 -0.592535 -0.625322
			-0.534770 -0.333510 -0.776397
			-0.234211 -0.797500 -0.556003
			-0.353240 -0.753425 -0.554592
			-0.199783 -0.836315 -0.510553
			-0.227956 -0.957062 -0.179076
			-0.452305 -0.876305 -0.165863
			-0.383469 -0.499246 -0.776984
			-0.050247 -0.699419 -0.712943
			-0.218121 -0.708263 -0.671407
			 0.319721 -0.924193  0.208918
			-0.789625 -0.259515 -0.556007
			-0.548401 -0.824888 -0.137173
			 0.332039  0.909534 -0.249995
			 0.150870  0.927779 -0.341269
			-0.072264  0.846423 -0.527585
			-0.454278  0.420605 -0.785317
			-0.723388 -0.240067 -0.647362
			 0.724065  0.684496  0.084825
			 0.635601 -0.238131  0.734374
			 0.405223 -0.809130  0.425562
			 0.163777 -0.887309  0.431115
			-0.570888 -0.819539 -0.049426
			-0.020677 -0.815854  0.577889
			 0.262000  0.901432 -0.344639
			-0.002714  0.800860 -0.598846
			-0.066031  0.718813 -0.692060
			-0.305816  0.500709 -0.809794
			-0.690990 -0.252479 -0.677338
			-0.570672 -0.820787 -0.025334
			 0.635636  0.733346  0.241186
			 0.272633 -0.551539  0.788337
			 0.486451  0.062219  0.871490
			-0.101763 -0.750381  0.653125
			 0.179935 -0.391611  0.902366
			 0.440100  0.845293 -0.302972
			 0.096776  0.807454 -0.581939
			-0.134746  0.699695 -0.701620
			-0.410621  0.458012 -0.788426
			-0.760040 -0.317313 -0.567143
			-0.527584 -0.849500  0.001985
			-0.175771 -0.817330  0.548705
			 0.714330  0.688934  0.122894
			 0.693704  0.013759  0.720128
			 0.240453 -0.546463  0.802222
			 0.683782  0.603452 -0.410228
			 0.417104  0.619549 -0.664969
			 0.109025  0.573610 -0.811841
			-0.234389  0.230599 -0.944397
			-0.509155 -0.586705 -0.629713
			-0.415185 -0.904764  0.094994
			-0.168605 -0.916099  0.363777
			 0.241730 -0.673404  0.698636
			 0.896413  0.434626 -0.086855
			 0.888426 -0.160616  0.430003
			 0.758413  0.235073 -0.607906
			 0.607694  0.191609 -0.770710
			 0.397603  0.260903 -0.879682
			 0.184121 -0.069339 -0.980455
			-0.054115 -0.641353 -0.765335
			-0.135253 -0.986033 -0.097183
			-0.001086 -0.971956  0.235162
			 0.353719 -0.812037  0.464196
			 0.893954 -0.418235  0.161018
			 0.940586  0.047627 -0.336199
			 0.652843 -0.349265 -0.672168
			 0.465866 -0.306316 -0.830144
			 0.166070 -0.763246 -0.624400
			 0.435308 -0.877001 -0.203411
		</DataArray>
	</PointData>
	<Points>
		<DataArray type="Float32" NumberOfComponents="3" format="ascii">
			-0.122255 -0.127594 -0.008450
			-0.124487 -0.123632 -0.008083
			-0.126720 -0.119670 -0.007717
			-0.125934 -0.119514 -0.011011
			-0.123419 -0.125444 -0.010084
			-0.109446 -0.130736 -0.005218
			-0.111025 -0.130549 -0.004000
			-0.113742 -0.123744 -0.002392
			-0.119240 -0.115901 -0.002978
			-0.122900 -0.105465 -0.004455
			-0.130934 -0.109871 -0.008554
			-0.127503 -0.115858 -0.010874
			-0.129072 -0.112201 -0.010737
			-0.112264 -0.122163 -0.010548
			-0.109768 -0.127047 -0.007981
			-0.093325 -0.119183 -0.003394
			-0.094670 -0.118222 -0.000717
			-0.097144 -0.114337  0.000119
			-0.101139 -0.107885  0.000932
			-0.104759 -0.096661 -0.000756
			-0.106201 -0.091818 -0.004076
			-0.125778 -0.098775 -0.006579
			-0.133323 -0.100164 -0.008561
			-0.132400 -0.103833 -0.010486
			-0.115913 -0.116142 -0.011342
			-0.118069 -0.108303 -0.010492
			-0.097312 -0.109508 -0.004635
			-0.095695 -0.115467 -0.003993
			-0.088875 -0.109169 -0.001678
			-0.089933 -0.108225  0.000955
			-0.090504 -0.106066  0.001963
			-0.095233 -0.098273  0.002962
			-0.098067 -0.091482  0.001236
			-0.098607 -0.086068 -0.002144
			-0.107231 -0.085506 -0.004889
			-0.098596 -0.080730 -0.003284
			-0.126094 -0.091010 -0.007225
			-0.134174 -0.093167 -0.008306
			-0.137660 -0.071401 -0.008663
			-0.137628 -0.080051 -0.009854
			-0.120677 -0.098628 -0.009832
			-0.098183 -0.104342 -0.005819
			-0.100324 -0.097017 -0.006931
			-0.090172 -0.100685 -0.003832
			-0.088410 -0.105673 -0.002617
			-0.078291 -0.087900  0.000361
			-0.079641 -0.086426  0.005000
			-0.080816 -0.084461  0.005932
			-0.082695 -0.081817  0.005312
			-0.083532 -0.076765  0.002063
			-0.085338 -0.072917 -0.001172
			-0.085803 -0.069858 -0.002296
			-0.110202 -0.065096 -0.004770
			-0.099826 -0.059678 -0.003556
			-0.088385 -0.052141 -0.004489
			-0.127382 -0.069150 -0.006024
			-0.129200 -0.045609 -0.008094
			-0.137048 -0.048439 -0.009253
			-0.138251 -0.049730 -0.011284
			-0.124830 -0.076103 -0.009033
			-0.102720 -0.088381 -0.006255
			-0.090527 -0.096881 -0.004529
			-0.092475 -0.090996 -0.005522
			-0.079278 -0.086341 -0.004305
			-0.078283 -0.087724 -0.002211
			-0.068146 -0.074901  0.001798
			-0.066946 -0.074137  0.004168
			-0.067808 -0.071955  0.005209
			-0.069799 -0.069887  0.003923
			-0.071853 -0.066850  0.001543
			-0.074941 -0.063204 -0.002722
			-0.076079 -0.060818 -0.004204
			-0.079828 -0.047530 -0.005971
			-0.111666 -0.042171 -0.005909
			-0.102436 -0.038633 -0.005745
			-0.090821 -0.036117 -0.006699
			-0.081924 -0.034626 -0.008082
			-0.128568 -0.034968 -0.008752
			-0.115825 -0.017003 -0.011842
			-0.127935 -0.024327 -0.009409
			-0.133703 -0.031374 -0.009581
			-0.132970 -0.021531 -0.010049
			-0.131637 -0.018396 -0.010595
			-0.125355 -0.047023 -0.011215
			-0.106460 -0.070064 -0.006341
			-0.095376 -0.080603 -0.005424
			-0.080351 -0.084540 -0.004816
			-0.082210 -0.081503 -0.005529
			-0.068234 -0.073125 -0.005136
			-0.066207 -0.072999 -0.000200
			-0.056990 -0.064870 -0.003289
			-0.056967 -0.064122 -0.001175
			-0.058141 -0.062157 -0.000243
			-0.059156 -0.059187 -0.001054
			-0.061810 -0.055816 -0.003848
			-0.063860 -0.054211 -0.007744
			-0.065862 -0.051608 -0.009378
			-0.069720 -0.042421 -0.009268
			-0.071667 -0.031188 -0.011394
			-0.107528 -0.011981 -0.013400
			-0.097888 -0.008238 -0.014821
			-0.087261 -0.006105 -0.016593
			-0.074403 -0.006143 -0.017498
			-0.115631 -0.007260 -0.012004
			-0.108574 -0.003553 -0.013270
			-0.124471 -0.012925 -0.009798
			-0.131553 -0.015937 -0.009125
			-0.119395 -0.016194 -0.013447
			-0.128207 -0.003741 -0.011264
			-0.107763 -0.042948 -0.008966
			-0.097098 -0.066485 -0.005165
			-0.086195 -0.071457 -0.004568
			-0.069005 -0.071863 -0.007658
			-0.071218 -0.069827 -0.008279
			-0.060435 -0.062598 -0.009680
			-0.058576 -0.064369 -0.004874
			-0.048433 -0.056183 -0.009987
			-0.048977 -0.055390 -0.007808
			-0.049406 -0.052779 -0.005883
			-0.049858 -0.050932 -0.006069
			-0.052866 -0.048558 -0.008780
			-0.055239 -0.046642 -0.013123
			-0.057501 -0.044161 -0.014484
			-0.059614 -0.037668 -0.014772
			-0.060512 -0.029164 -0.015945