<?xml version="1.0"?>
<VTKFile type="PolyData" version="0.1" byte_order="LittleEndian" compressor="vtkZLibDataCompressor">
	<PolyData>
		<Piece NumberOfPoints="200" NumberOfVerts="0" NumberOfLines="0" NumberOfStrips="0" NumberOfPolys="396">
		<PointData Normals="Normals">
		<DataArray type="Float32" Name="Normals" NumberOfComponents="3" format="ascii">
			-0.461502  0.452023 -0.763342
			 0.257413  0.102058 -0.960897
			-0.474386 -0.417896 -0.774804
			-0.624237  0.394033 -0.674586
			-0.210068  0.790485 -0.575330
			 0.474328  0.743914 -0.470749
			 0.803531 -0.308474 -0.509099
			 0.189210 -0.970940 -0.146546
			-0.371076 -0.856309 -0.359217
			-0.356103  0.764963 -0.536677
			-0.512536  0.287925 -0.808953
			-0.481162 -0.619483 -0.620262
			 0.260163  0.923472 -0.281984
			 0.953886  0.170399 -0.247113
			 0.584966 -0.789376 -0.186283
			-0.040508 -0.991259  0.125556
			 0.322574 -0.941067  0.101679
			-0.008398 -0.994371  0.105624
			-0.301169  0.722090 -0.622803
			 0.098125  0.962671 -0.252263
			-0.313573 -0.198639 -0.928555
			-0.115441 -0.924944 -0.362149
			 0.042271 -0.998158  0.043518
			 0.746682  0.664581  0.028245
			 0.894582 -0.400903  0.197487
			-0.081804 -0.938200  0.336286
			 0.130910 -0.873219  0.469416
			 0.321416 -0.816315  0.479918
			 0.827998 -0.251362  0.501234
			 0.289566 -0.820587  0.492736
			-0.058661  0.939988 -0.336128
			-0.247786  0.700905 -0.668831
			 0.515078  0.791566  0.328813
			 0.776479  0.562796  0.283446
			-0.197521 -0.168761 -0.965663
			 0.014715 -0.947600 -0.319121
			 0.096117 -0.995059 -0.024885
			 0.297395 -0.908924  0.292257
			 0.033857 -0.550665  0.834039
			-0.018849 -0.437649  0.898949
			 0.172421 -0.394267  0.902676
			 0.441328 -0.001114  0.897345
			 0.346232 -0.240127  0.906897
			-0.098254  0.903107 -0.418024
			 0.146646  0.896299  0.418501
			-0.117511  0.611397 -0.782550
			 0.114304 -0.190222 -0.975064
			 0.243238 -0.966272 -0.084584
			 0.135734 -0.990640  0.014445
			 0.183186 -0.982515  0.033261
			 0.057456 -0.566217  0.822251
			 0.107046  0.315783  0.942774
			-0.020777  0.255121  0.966686
			 0.060632  0.329071  0.942357
			-0.137933  0.391838  0.909636
			-0.030602  0.885857  0.462949
			-0.072204  0.890539 -0.449139
			 0.028809  0.536117 -0.843652
			 0.205660  0.013098 -0.978536
			 0.351805 -0.830091 -0.432644
			 0.199742 -0.925043  0.323107
			 0.335716 -0.893935  0.296941
			-0.149236 -0.841250  0.519642
			 0.114264 -0.981746  0.152050
			-0.450492  0.246672  0.858026
			-0.138602  0.865197  0.481896
			-0.219061  0.901470  0.373316
			-0.341353  0.890300  0.301405
			-0.156069  0.909744 -0.384719
			 0.154336  0.448826 -0.880191
			 0.078650  0.541424 -0.837063
			 0.150922  0.359919 -0.920696
			 0.231017 -0.115324 -0.966091
			 0.355565 -0.668857 -0.652843
			 0.326608 -0.876181  0.354448
			 0.125367 -0.923262  0.363139
			 0.153005 -0.809907  0.566251
			-0.175803 -0.655831  0.734152
			-0.426820  0.313045  0.848427
			-0.399848  0.882184  0.248744
			-0.134107  0.892339 -0.430983
			-0.123165  0.867747 -0.481503
			 0.097975  0.379770 -0.919878
			 0.137733  0.376464 -0.916136
			 0.037231  0.558514 -0.828659
			 0.188897  0.159018 -0.969036
			 0.344837 -0.529971 -0.774737
			 0.238820 -0.929885  0.279785
			 0.053270 -0.626722  0.777420
			-0.186872 -0.553810  0.811402
			 0.054522 -0.837880  0.543125
			-0.427340  0.299057  0.853197
			-0.415858  0.877203  0.239952
			-0.186808  0.847423 -0.496968
			 0.030230  0.557516 -0.829616
			 0.221801  0.009376 -0.975047
			 0.336611 -0.629381 -0.700409
			 0.251063 -0.955985  0.151854
			 0.037050 -0.668676  0.742630
			-0.367553  0.369123  0.853612
			-0.110055 -0.443245  0.889619
			-0.143541  0.838225 -0.526094
			-0.284123  0.951033  0.121695
			 0.011697  0.571239 -0.820700
			 0.072403  0.118602 -0.990299
			 0.236910 -0.624905 -0.743886
			 0.234356 -0.957834  0.166227
			 0.129953 -0.652487  0.746574
			 0.016134 -0.332674  0.942904
			-0.220965  0.438570  0.871109
			 0.011940  0.625934 -0.779784
			-0.083465  0.837757 -0.539627
			-0.185056  0.982718 -0.004333
			-0.064297  0.402400 -0.913203
			-0.024556  0.351063 -0.936030
			 0.016651  0.006639 -0.999839
			 0.119379 -0.579286 -0.806335
			 0.223661 -0.967826  0.115280
			 0.197180 -0.636004  0.746069
			 0.083892 -0.257898  0.962523
			-0.097669  0.464673  0.880080
			-0.145667  0.979049  0.142281
			-0.066474  0.749846 -0.658265
			-0.035692 -0.059730 -0.997576
			-0.041559  0.355156 -0.933883
			-0.036164  0.739349 -0.672350
			 0.029151 -0.579226 -0.814646
			 0.189731 -0.976559 -0.101665
			 0.208804 -0.716224  0.665901
			 0.191718 -0.242825  0.950936
			 0.062193  0.494663  0.866857
			-0.054060  0.991738  0.116334
			-0.133133 -0.110288 -0.984943
			-0.056582 -0.641890 -0.764707
			-0.188365  0.485275 -0.853831
			-0.064451  0.802744 -0.592831
			 0.175797 -0.981639  0.074024
			 0.235914 -0.637019  0.733861
			 0.247016  0.479804  0.841885
			 0.322022 -0.158526  0.933365
			 0.067529  0.989534  0.127523
			-0.204234 -0.095359 -0.974267
			-0.120720 -0.628311 -0.768539
			 0.107408 -0.993653 -0.033427
			-0.285425  0.764211 -0.578372
			-0.191962  0.650193 -0.735118
			-0.220127  0.721776 -0.656188
			-0.243316  0.065711 -0.967719
			 0.296005 -0.650212  0.699719
			-0.007723  0.995129  0.098281
			 0.405866  0.426075  0.808538
			 0.418480 -0.177288  0.890755
			-0.157731 -0.586065 -0.794763
			 0.027568 -0.988292 -0.150062
			 0.240070 -0.677782  0.694966
			-0.300632  0.018092 -0.953569
			-0.146202  0.500039 -0.853572
			 0.280574  0.958993 -0.040139
			-0.030828  0.691124 -0.722078
			-0.309139 -0.529234 -0.790155
			 0.543699  0.387146  0.744654
			 0.494381 -0.315923  0.809803
			-0.082983 -0.993276 -0.080725
			 0.493474 -0.634409  0.594986
			 0.291520 -0.807965  0.512064
			-0.460874 -0.005830 -0.887446
			-0.454974 -0.399075 -0.796076
			-0.214385  0.395957 -0.892892
			 0.337482  0.941236 -0.013472
			 0.072548  0.715171 -0.695174
			-0.240207 -0.945305 -0.220678
			 0.650766  0.361622  0.667632
			 0.669011 -0.083455  0.738553
			 0.589138 -0.642783  0.489639
			 0.571855 -0.708489  0.413553
			 0.109045 -0.956723  0.269798
			-0.548121  0.026017 -0.835994
			-0.714274 -0.699859  0.003305
			-0.749255 -0.250133 -0.613229
			-0.998890 -0.044576 -0.015217
			-0.237309  0.479390 -0.844908
			 0.506694  0.845867  0.166641
			-0.058257  0.732052 -0.678754
			-0.139377  0.985807 -0.093584
			-0.611624 -0.744467  0.267740
			 0.624926  0.388524  0.677139
			 0.633593  0.078865  0.769637
			 0.489320 -0.483828  0.725586
			 0.171199 -0.889380  0.423902
			-0.866014  0.357360 -0.349734
			-0.975406 -0.146290  0.164873
			-0.958462  0.162702  0.234263
			-0.636861  0.718962 -0.278393
			-0.109059  0.809872  0.576380
			-0.829367  0.491003  0.266583
			-0.594042 -0.749888  0.291175
			 0.135160  0.364101  0.921500
			-0.661237 -0.356241  0.660195
			-0.975725 -0.176482  0.129670
			-0.928187  0.295078  0.226710
		</DataArray>
	</PointData>
	<Points>
		<DataArray type="Float32" NumberOfComponents="3" format="ascii">
			 0.142074  0.021551 -0.004236
			 0.150440  0.019481 -0.007656
			 0.141539  0.016953 -0.004922
			 0.136616  0.020062  0.000410
			 0.144684  0.024897 -0.002114
			 0.153818  0.026421  0.001808
			 0.154345  0.021311 -0.002230
			 0.147078  0.016461 -0.001662
			 0.135359  0.017647  0.001398
			 0.139953  0.026412  0.003619
			 0.132831  0.019639  0.003601
			 0.129680  0.017923  0.005088
			 0.151039  0.028619  0.005320
			 0.156988  0.023031  0.002435
			 0.152771  0.017991  0.001868
			 0.137604  0.016979  0.006017
			 0.151276  0.017237  0.006426
			 0.132172  0.017827  0.009830
			 0.133992  0.026778  0.007990
			 0.144986  0.030749  0.010831
			 0.126770  0.019472  0.005687
			 0.123640  0.018539  0.008625
			 0.124596  0.018140  0.013212
			 0.156041  0.026416  0.007228
			 0.156333  0.020365  0.007497
			 0.140681  0.018908  0.013106
			 0.134589  0.019683  0.016088
			 0.150949  0.018136  0.016764
			 0.152065  0.020260  0.017839
			 0.126811  0.019459  0.020250
			 0.137693  0.032025  0.015068
			 0.127958  0.027588  0.011882
			 0.147403  0.031246  0.019719
			 0.151644  0.029105  0.015092
			 0.121598  0.019443  0.007379
			 0.119349  0.018257  0.009197
			 0.119165  0.017541  0.014773
			 0.118173  0.018554  0.024649
			 0.144476  0.022087  0.023195
			 0.136063  0.026929  0.025326
			 0.129205  0.026217  0.024036
			 0.146716  0.024988  0.023722
			 0.118638  0.021378  0.026333
			 0.128809  0.031438  0.016253
			 0.139374  0.032594  0.022572
			 0.120101  0.026554  0.013697
			 0.115283  0.017838  0.008177
			 0.115131  0.017535  0.010237
			 0.113121  0.016897  0.016427
			 0.112267  0.016770  0.021983
			 0.111714  0.017052  0.028225
			 0.138129  0.030571  0.024285
			 0.129568  0.029344  0.024619
			 0.118680  0.027170  0.025935
			 0.111232  0.024978  0.027638
			 0.130752  0.032187  0.023162
			 0.120766  0.031814  0.017288
			 0.112934  0.026013  0.012805
			 0.108248  0.016509  0.007949
			 0.106898  0.014803  0.008552
			 0.104741  0.015423  0.014532
			 0.106203  0.014034  0.011153
			 0.100901  0.015707  0.022497
			 0.103320  0.016251  0.017735
			 0.100323  0.022322  0.023350
			 0.119005  0.031352  0.022894
			 0.111703  0.029655  0.022895
			 0.100227  0.027273  0.019683
			 0.111595  0.029682  0.016536
			 0.105814  0.020207  0.009430
			 0.104332  0.023216  0.010247
			 0.104994  0.017532  0.007235
			 0.099914  0.014687  0.006240
			 0.099622  0.011972  0.007301
			 0.099038  0.010697  0.010653
			 0.094750  0.014633  0.017344
			 0.096795  0.013169  0.013257
			 0.093022  0.015252  0.020220
			 0.093136  0.020615  0.020293
			 0.093932  0.025693  0.016230
			 0.101431  0.026669  0.013556
			 0.094981  0.024810  0.012158
			 0.099150  0.016364  0.006561
			 0.098766  0.017444  0.006943
			 0.096948  0.021172  0.008339
			 0.091577  0.012649  0.004181
			 0.090503  0.011040  0.004473
			 0.089442  0.006257  0.009573
			 0.088544  0.010248  0.011206
			 0.085789  0.013891  0.016977
			 0.086990  0.012334  0.014198
			 0.085891  0.019253  0.017050
			 0.087160  0.023027  0.013432
			 0.088220  0.022525  0.010083
			 0.089878  0.019070  0.006665
			 0.082338  0.010092  0.001794
			 0.081690  0.007528  0.002332
			 0.081340  0.004489  0.006639
			 0.079281  0.008821  0.010082
			 0.077002  0.015974  0.014094
			 0.077654  0.012392  0.014127
			 0.079435  0.018933  0.008224
			 0.078258  0.019747  0.010477
			 0.081365  0.015372  0.004136
			 0.072783  0.007987 -0.000110
			 0.071608  0.004483  0.000537
			 0.071549  0.002124  0.005614
			 0.070786  0.005911  0.008993
			 0.069154  0.009288  0.012683
			 0.068028  0.014179  0.012193
			 0.072105  0.013095  0.001836
			 0.071108  0.016234  0.005356
			 0.069010  0.017854  0.008889
			 0.066289  0.011455  0.000717
			 0.061184  0.009742  0.000986
			 0.061882  0.004756 -0.000317
			 0.059953  0.002266 -0.000158
			 0.060539  0.000063  0.005463
			 0.059891  0.002491  0.008418
			 0.058177  0.006958  0.012446
			 0.057962  0.011717  0.011479
			 0.056053  0.015604  0.007163
			 0.056006  0.013842  0.003917
			 0.050410  0.004010 -0.000911
			 0.050629  0.009067  0.000273
			 0.050107  0.013303  0.003141
			 0.050149  0.001036  0.000067
			 0.051400 -0.001947  0.005353
			 0.050867  0.000549  0.010128
			 0.047881  0.004429  0.012967
			 0.048172  0.010409  0.011978
			 0.049540  0.015024  0.006469
			 0.039982  0.003402  0.000206
			 0.041478 -0.001044  0.002291
			 0.037046  0.008955  0.001412
			 0.038104  0.013537  0.005349
			 0.043828 -0.003552  0.006032
			 0.045659  0.000205  0.010822
			 0.038671  0.010252  0.013698
			 0.038519  0.003220  0.015247
			 0.038460  0.015117  0.008195
			 0.033353  0.005257  0.001467
			 0.034125 -0.001528  0.003271
			 0.035696 -0.004683  0.008159
			 0.035001  0.013885  0.005928
			 0.025091  0.009895  0.005343
			 0.030700  0.011852  0.008406
			 0.024707  0.005981  0.003319
			 0.036651 -0.001145  0.013627
			 0.033598  0.015296  0.010213
			 0.031770  0.009789  0.016732
			 0.029387  0.003510  0.018562
			 0.025585 -0.001969  0.005046
			 0.026594 -0.005332  0.010566
			 0.026397 -0.002111  0.017025
			 0.016896  0.004593  0.005308
			 0.017109  0.010504  0.007657
			 0.028090  0.015986  0.012483
			 0.018364  0.015879  0.010905
			 0.017354 -0.002214  0.007154
			 0.026622  0.010532  0.019872
			 0.023842  0.005333  0.022086
			 0.016825 -0.005857  0.012516
			 0.016316  0.002327  0.021418
			 0.013923 -0.002315  0.020704
			 0.008991  0.004300  0.007651
			 0.008998 -0.000099  0.010732
			 0.009373  0.011089  0.009018
			 0.020245  0.018815  0.015442
			 0.010995  0.015866  0.012328
			 0.010621 -0.004079  0.013876
			 0.019281  0.012549  0.024637
			 0.016591  0.007113  0.027676
			 0.015350  0.003173  0.026686
			 0.012471 -0.000542  0.024794
			 0.009498 -0.003338  0.021984
			 0.007148  0.008762  0.009608
			 0.000200 -0.000899  0.015054
			-0.001812  0.002577  0.013941
			-0.000951  0.008717  0.014261
			 0.006142  0.015423  0.011678
			 0.015035  0.021435  0.020361
			 0.007643  0.020020  0.014660
			 0.009585  0.023800  0.021288
			 0.004301 -0.002312  0.019680
			 0.013719  0.015304  0.029053
			 0.010644  0.009994  0.033682
			 0.008304  0.002981  0.034643
			 0.008528 -0.001172  0.028360
			 0.000090  0.014030  0.013317
			 0.001922  0.006398  0.020483
			 0.002082  0.011872  0.020756
			 0.002678  0.018785  0.016505
			 0.008778  0.018471  0.030229
			 0.003856  0.017447  0.021853
			 0.004692 -0.000420  0.028570
			 0.005573  0.011593  0.036730
			 0.004601  0.003730  0.037309
			 0.002361  0.005139  0.029215
			 0.002769  0.013452  0.029111
		</DataArray>
	</Points>
			<Polys>
				<DataArray type="Int32" Name="connectivity" format="ascii">
					0 1 2 
					3 0 2 
					3 4 0 
					0 4 1 
					5 6 1 
					5 1 4 
					7 1 6 
					2 1 7 
					3 2 8 
					8 2 7 
					3 9 4 
					9 3 10 
					11 10 3 
					11 3 8 
					4 9 12 
					4 12 5 
					13 5 12 
					5 13 6 
					7 6 14 
					14 6 13 
					8 7 15 
					7 14 16 
					7 16 15 
					8 15 17 
					8 17 11 
					9 10 18 
					18 19 9 
					12 9 19 
					18 10 20 
					21 20 10 
					21 10 11 
					11 17 22 
					11 22 21 
					13 12 23 
					23 12 19 
					24 14 13 
					23 24 13 
					24 16 14 
					16 25 15 
					26 17 15 
					26 15 25 
					16 27 25 
					28 27 16 
					28 16 24 
					29 22 17 
					29 17 26 
					18 30 19 
					18 20 31 
					31 30 18 
					30 32 19 
					32 33 19 
					23 19 33 
					31 20 34 
					20 21 35 
					20 35 34 
					21 22 36 
					21 36 35 
					37 36 22 
					37 22 29 
					33 24 23 
					33 28 24 
					38 25 27 
					39 26 25 
					39 25 38 
					40 29 26 
					40 26 39 
					41 38 27 
					41 27 28 
					32 41 28 
					32 28 33 
					42 37 29 
					42 29 40 
					31 43 30 
					30 44 32 
					43 44 30 
					31 34 45 
					45 43 31 
					44 41 32 
					45 34 46 
					47 46 34 
					47 34 35 
					35 36 48 
					35 48 47 
					48 36 37 
					48 37 49 
					42 50 37 
					49 37 50 
					51 39 38 
					51 38 41 
					52 40 39 
					52 39 51 
					53 42 40 
					53 40 52 
					44 51 41 
					54 50 42 
					54 42 53 
					43 55 44 
					45 56 43 
					56 55 43 
					55 51 44 
					45 46 57 
					57 56 45 
					57 46 58 
					59 58 46 
					59 46 47 
					47 48 60 
					47 60 61 
					61 59 47 
					62 63 48 
					62 48 49 
					60 48 63 
					49 50 62 
					64 50 54 
					64 62 50 
					55 52 51 
					65 53 52 
					65 52 55 
					66 54 53 
					66 53 65 
					67 64 54 
					67 54 66 
					56 65 55 
					57 68 56 
					68 65 56 
					57 58 69 
					70 68 57 
					69 70 57 
					71 69 58 
					71 58 72 
					73 72 58 
					73 58 59 
					74 73 59 
					74 59 61 
					75 76 60 
					75 60 63 
					76 61 60 
					76 74 61 
					77 63 62 
					62 64 78 
					62 78 77 
					77 75 63 
					79 78 64 
					79 64 67 
					68 66 65 
					80 67 66 
					80 66 68 
					81 79 67 
					81 67 80 
					70 80 68 
					82 83 69 
					82 69 71 
					83 70 69 
					83 84 70 
					84 80 70 
					71 72 82 
					82 72 85 
					86 85 72 
					86 72 73 
					87 86 73 
					87 73 74 
					88 87 74 
					88 74 76 
					89 90 75 
					89 75 77 
					90 76 75 
					90 88 76 
					91 89 77 
					91 77 78 
					92 91 78 
					92 78 79 
					93 92 79 
					93 79 81 
					84 81 80 
					94 93 81 
					94 81 84 
					82 85 83 
					85 84 83 
					85 94 84 
					94 85 95 
					95 85 86 
					95 86 96 
					97 96 86 
					97 86 87 
					98 97 87 
					98 87 88 
					98 88 90 
					99 100 89 
					99 89 91 
					100 90 89 
					100 98 90 
					99 91 92 
					101 102 92 
					101 92 93 
					99 92 102 
					103 101 93 
					103 93 94 
					94 95 103 
					104 103 95 
					95 96 105 
					95 105 104 
					106 105 96 
					106 96 97 
					107 106 97 
					107 97 98 
					108 107 98 
					108 98 100 
					102 109 99 
					109 100 99 
					109 108 100 
					110 111 101 
					110 101 103 
					111 102 101 
					111 112 102 
					102 112 109 
					104 110 103 
					113 110 104 
					104 114 113 
					115 114 104 
					104 105 116 
					104 116 115 
					117 116 105 
					117 105 106 
					118 117 106 
					118 106 107 
					107 108 119 
					107 119 118 
					120 119 108 
					120 108 109 
					121 120 109 
					121 109 112 
					122 111 110 
					122 110 113 
					112 111 122 
					112 122 121 
					113 114 122 
					123 124 114 
					123 114 115 
					125 122 114 
					125 114 124 
					115 116 126 
					115 126 123 
					127 126 116 
					127 116 117 
					128 127 117 
					128 117 118 
					118 119 129 
					118 129 128 
					130 129 119 
					120 130 119 
					120 121 131 
					120 131 130 
					121 122 125 
					121 125 131 
					132 124 123 
					123 126 133 
					123 133 132 
					132 134 124 
					134 125 124 
					134 135 125 
					131 125 135 
					136 133 126 
					136 126 127 
					136 127 128 
					137 128 129 
					137 136 128 
					130 138 129 
					139 137 129 
					138 139 129 
					130 131 140 
					130 140 138 
					131 135 140 
					141 134 132 
					132 133 142 
					132 142 141 
					143 142 133 
					143 133 136 
					144 135 134 
					145 146 134 
					147 145 134 
					147 134 141 
					146 144 134 
					140 135 144 
					148 143 136 
					148 136 137 
					139 148 137 
					138 140 149 
					138 149 150 
					150 139 138 
					150 151 139 
					148 139 151 
					140 144 149 
					141 142 152 
					141 152 147 
					153 152 142 
					153 142 143 
					143 148 154 
					154 153 143 
					149 144 146 
					155 156 145 
					155 145 147 
					146 145 156 
					149 146 157 
					146 156 158 
					157 146 158 
					147 152 159 
					147 159 155 
					151 154 148 
					150 149 157 
					150 157 160 
					160 151 150 
					160 161 151 
					161 154 151 
					162 159 152 
					162 152 153 
					162 153 154 
					163 154 161 
					164 154 163 
					162 154 164 
					165 156 155 
					166 165 155 
					166 155 159 
					165 167 156 
					158 156 167 
					160 157 168 
					157 158 168 
					158 167 169 
					168 158 169 
					170 166 159 
					170 159 162 
					160 168 171 
					171 161 160 
					171 172 161 
					173 163 161 
					173 161 172 
					170 162 164 
					174 163 173 
					164 163 174 
					174 175 164 
					170 164 175 
					166 176 165 
					176 167 165 
					177 178 166 
					177 166 170 
					179 176 166 
					179 166 178 
					167 176 180 
					167 180 169 
					168 169 181 
					171 168 181 
					169 180 182 
					169 182 183 
					169 183 181 
					170 175 184 
					170 184 177 
					171 181 185 
					185 172 171 
					185 186 172 
					172 186 187 
					172 187 173 
					173 187 188 
					173 188 174 
					174 188 175 
					188 184 175 
					189 180 176 
					189 176 179 
					179 178 177 
					179 177 184 
					179 184 190 
					191 189 179 
					191 179 190 
					192 182 180 
					192 180 189 
					193 185 181 
					193 181 183 
					182 192 183 
					193 183 194 
					183 192 194 
					188 195 184 
					190 184 195 
					196 186 185 
					196 185 193 
					187 186 196 
					187 197 195 
					187 195 188 
					187 196 197 
					194 192 189 
					194 189 191 
					190 195 198 
					190 198 199 
					190 199 191 
					194 191 199 
					199 196 193 
					194 199 193 
					198 195 197 
					197 196 199 
					197 199 198 
				</DataArray>
				<DataArray type="Int32" Name="offsets" format="ascii">
					3 6 9 12 15 18 21 24 27 30 33 36 39 42 45 48 51 54 57 60 63 66 69 72 75 78 81 84 87 90 93 96 99 102 105 108 111 114 117 120 123 126 129 132 135 138 141 144 147 150 153 156 159 162 165 168 171 174 177 180 183 186 189 192 195 198 201 204 207 210 213 216 219 222 225 228 231 234 237 240 243 246 249 252 255 258 261 264 267 270 273 276 279 282 285 288 291 294 297 300 303 306 309 312 315 318 321 324 327 330 333 336 339 342 345 348 351 354 357 360 363 366 369 372 375 378 381 384 387 390 393 396 399 402 405 408 411 414 417 420 423 426 429 432 435 438 441 444 447 450 453 456 459 462 465 468 471 474 477 480 483 486 489 492 495 498 501 504 507 510 513 516 519 522 525 528 531 534 537 540 543 546 549 552 555 558 561 564 567 570 573 576 579 582 585 588 591 594 597 600 603 606 609 612 615 618 621 624 627 630 633 636 639 642 645 648 651 654 657 660 663 666 669 672 675 678 681 684 687 690 693 696 699 702 705 708 711 714 717 720 723 726 729 732 735 738 741 744 747 750 753 756 759 762 765 768 771 774 777 780 783 786 789 792 795 798 801 804 807 810 813 816 819 822 825 828 831 834 837 840 843 846 849 852 855 858 861 864 867 870 873 876 879 882 885 888 891 894 897 900 903 906 909 912 915 918 921 924 927 930 933 936 939 942 945 948 951 954 957 960 963 966 969 972 975 978 981 984 987 990 993 996 999 1002 1005 1008 1011 1014 1017 1020 1023 1026 1029 1032 1035 1038 1041 1044 1047 1050 1053 1056 1059 1062 1065 1068 1071 1074 1077 1080 1083 1086 1089 1092 1095 1098 1101 1104 1107 1110 1113 1116 1119 1122 1125 1128 1131 1134 1137 1140 1143 1146 1149 1152 1155 1158 1161 1164 1167 1170 1173 1176 1179 1182 1185 1188 
				</DataArray>
			</Polys>
		</Piece>
	</PolyData>
</VTKFile>
