<?xml version="1.0"?>
<VTKFile type="PolyData" version="0.1" byte_order="LittleEndian" compressor="vtkZLibDataCompressor">
	<PolyData>
		<Piece NumberOfPoints="339" NumberOfVerts="0" NumberOfLines="0" NumberOfStrips="0" NumberOfPolys="674">
		<PointData Normals="Normals">
		<DataArray type="Float32" Name="Normals" NumberOfComponents="3" format="ascii">
			 0.996990  0.046156  0.062292
			 0.778328  0.121058  0.616077
			 0.868379 -0.329047  0.371006
			 0.915057 -0.248872 -0.317385
			 0.919625  0.126133 -0.371995
			 0.815079  0.526914  0.240848
			 0.430714 -0.317576  0.844767
			 0.352847  0.112103  0.928941
			 0.565410  0.504603  0.652447
			 0.863425 -0.295433  0.408922
			 0.936215 -0.295911 -0.189576
			 0.482972 -0.295262  0.824353
			 0.627860 -0.257318 -0.734561
			 0.552646 -0.222305 -0.803220
			 0.386301 -0.084793 -0.918467
			 0.379004  0.449931 -0.808652
			 0.750402  0.654553 -0.091965
			 0.658379  0.666724  0.349308
			 0.454979  0.099051  0.884976
			 0.250826 -0.186801  0.949838
			 0.182809 -0.465838  0.865780
			 0.627146  0.396534  0.670409
			 0.851664 -0.164040  0.497755
			 0.975082 -0.214831 -0.055348
			 0.473519 -0.143541  0.869009
			 0.649566 -0.231602 -0.724172
			 0.158399 -0.257168  0.953296
			 0.431941 -0.285950 -0.855371
			 0.603260 -0.265996 -0.751880
			 0.400025 -0.030874 -0.915984
			 0.234511  0.505234 -0.830508
			 0.116153  0.736771 -0.666091
			 0.377461  0.839443 -0.390971
			 0.567448  0.821043  0.062373
			 0.606284  0.666547  0.433745
			 0.404222  0.508200  0.760485
			 0.174009  0.553673  0.814351
			 0.205039  0.243262  0.948041
			-0.300537  0.187732  0.935112
			-0.173593 -0.327073  0.928918
			-0.024810 -0.521993  0.852589
			 0.509341 -0.015525  0.860425
			 0.873986 -0.078615  0.479550
			 0.980499 -0.148418 -0.128814
			 0.068411 -0.095045  0.993120
			 0.088422 -0.006557  0.996062
			 0.379129 -0.239848 -0.893719
			 0.611490 -0.155703 -0.775781
			-0.191713 -0.289334  0.937834
			 0.373086 -0.419086 -0.827752
			 0.368242 -0.473447 -0.800153
			 0.436710 -0.266546 -0.859208
			 0.711162  0.087181 -0.697602
			-0.291872  0.532955 -0.794210
			-0.007280  0.340004 -0.940396
			 0.146193  0.904940 -0.399638
			-0.069944  0.786321 -0.613846
			 0.376792  0.922849 -0.079855
			 0.381796  0.834103  0.398126
			 0.085754  0.818570  0.567969
			-0.303199  0.815296  0.493318
			-0.335462  0.537704  0.773524
			-0.729274  0.469310  0.497903
			-0.769596  0.153966  0.619690
			-0.731057 -0.337087  0.593235
			-0.477192 -0.629165  0.613546
			-0.600598 -0.475572  0.642739
			 0.055417  0.051834  0.997117
			 0.551065  0.035202  0.833719
			 0.916152 -0.035255  0.399278
			 0.978424 -0.103912 -0.178573
			-0.309123 -0.116202  0.943896
			-0.399523 -0.022281  0.916452
			 0.312669 -0.128745 -0.941097
			 0.254762 -0.337957 -0.906025
			 0.665523 -0.090553 -0.740864
			-0.746186 -0.240660  0.620717
			-0.307064 -0.476458 -0.823832
			-0.369048 -0.461417 -0.806782
			-0.265734 -0.217520 -0.939186
			-0.647443  0.242466 -0.722515
			-0.532780  0.671597 -0.514881
			-0.556612  0.096100 -0.825196
			-0.597460 -0.161017 -0.785567
			 0.125882  0.975428 -0.180816
			-0.013652  0.992189 -0.123991
			-0.114578  0.915620 -0.385373
			 0.189721  0.981122  0.037498
			 0.047114  0.982883  0.178106
			-0.204327  0.966597  0.154727
			-0.344439  0.937206  0.054842
			-0.589240  0.738047  0.328761
			-0.646980  0.762503 -0.002472
			-0.880901  0.469501  0.059855
			-0.981866  0.135198  0.132893
			-0.915980 -0.399061 -0.041616
			-0.768743 -0.639243  0.020083
			-0.835405 -0.548503  0.035266
			-0.953883 -0.300175  0.001690
			 0.103282  0.074512  0.991857
			-0.526968  0.032703  0.849256
			-0.468726  0.062429  0.881135
			 0.645282  0.041410  0.762821
			 0.965007 -0.023860  0.261136
			 0.969840 -0.069361 -0.233664
			-0.832232 -0.113000  0.542790
			-0.896258 -0.019022  0.443126
			 0.060455 -0.185184 -0.980843
			 0.192189 -0.044417 -0.980352
			-0.382697 -0.338072 -0.859797
			 0.712001 -0.073281 -0.698344
			-0.988890 -0.136656 -0.058503
			-0.641934 -0.412108 -0.646597
			-0.631765 -0.374014 -0.678960
			-0.762562 -0.279230 -0.583549
			-0.904365  0.226427 -0.361739
			-0.823775  0.511310 -0.244860
			-0.501807  0.822540 -0.267614
			-0.634807 -0.539989 -0.552659
			-0.100063  0.981635 -0.162418
			-0.232938  0.971812 -0.036346
			-0.735550 -0.478804 -0.479283
			-0.780367 -0.285685 -0.556248
			-0.852184 -0.127204 -0.507545
			 0.110069  0.045602  0.992877
			-0.439718  0.063947  0.895857
			-0.913335  0.031663  0.405977
			-0.888543  0.057320  0.455198
			 0.741055 -0.018354  0.671193
			 0.988984 -0.062958  0.133968
			 0.962051 -0.090607 -0.257388
			-0.994294 -0.056051 -0.090762
			-0.967892 -0.037075 -0.248619
			-0.473230 -0.154994 -0.867197
			-0.365114 -0.091353 -0.926470
			 0.043435 -0.076899 -0.996092
			 0.696290 -0.094142 -0.711560
			-0.799857 -0.070777 -0.596003
			-0.506082  0.054491  0.860762
			 0.232759  0.000393  0.972534
			-0.923369 -0.004813 -0.383885
			-0.948141  0.045762 -0.314540
			-0.915023  0.079379  0.395514
			 0.720418 -0.060873  0.690863
			 0.966891 -0.090352  0.238661
			 0.956148 -0.120371 -0.267006
			-0.618761 -0.081212 -0.781370
			-0.036332 -0.079835 -0.996146
			 0.613704 -0.112904 -0.781422
			-0.870855  0.075022  0.485781
			-0.449608  0.048507  0.891908
			 0.132955  0.015195  0.991006
			 0.873571 -0.035746  0.485382
			-0.597780 -0.048724 -0.800178
			-0.660076 -0.010905 -0.751120
			-0.958952  0.049191 -0.279268
			-0.633565  0.000816 -0.773689
			 0.915710 -0.076311 -0.394527
			 0.770189 -0.111260 -0.628037
			-0.059718 -0.067976 -0.995898
			-0.964858  0.028982 -0.261168
			-0.832226  0.063247  0.550817
			-0.372234  0.032069  0.927585
			 0.201196  0.012102  0.979476
			 0.918186  0.061949  0.391275
			 0.098222 -0.065261 -0.993022
			-0.668338 -0.008265 -0.743811
			 0.062065 -0.058633 -0.996348
			 0.795794  0.035902 -0.604502
			 0.797666 -0.030132 -0.602346
			 0.758174 -0.062791 -0.649022
			-0.724042  0.016723 -0.689553
			-0.995849  0.077397 -0.047904
			-0.645043  0.052607  0.762333
			-0.139505 -0.028867  0.989800
			 0.201934 -0.029986  0.978940
			 0.940355  0.189985  0.282201
			-0.110841 -0.001265 -0.993837
			 0.615709 -0.009307 -0.787919
			 0.650935  0.141570 -0.745816
			 0.597525  0.079080 -0.797941
			-0.076604  0.085700 -0.993372
			-0.664071  0.213617 -0.716504
			-0.954411  0.296034 -0.038250
			-0.476289  0.053644  0.877651
			-0.039733 -0.120686  0.991895
			 0.066863 -0.010731  0.997704
			 0.942201  0.285515 -0.175322
			 0.623848  0.131985  0.770321
			 0.466292  0.127485 -0.875397
			 0.601781  0.271096 -0.751243
			 0.354416  0.184694 -0.916666
			 0.353555  0.180030 -0.917926
			-0.426987  0.251968 -0.868443
			 0.029627 -0.134886 -0.990418
			 0.054188 -0.174123 -0.983232
			 0.029223  0.057631 -0.997910
			-0.533580  0.385775 -0.752643
			-0.760424  0.467909 -0.450352
			-0.836780  0.442815  0.322048
			-0.386256  0.276867  0.879859
			 0.214189 -0.346337  0.913331
			-0.085164 -0.410811  0.907734
			-0.340708 -0.288501  0.894810
			 0.649838  0.062316  0.757514
			-0.372333 -0.101467  0.922536
			 0.085433  0.034226  0.995756
			 0.965537  0.246848 -0.082491
			 0.339299  0.304699 -0.889963
			 0.567499  0.320515 -0.758429
			 0.331760  0.384753 -0.861336
			 0.178426  0.315403 -0.932033
			-0.208795  0.277845 -0.937660
			 0.241114  0.123583 -0.962596
			-0.084718  0.144510 -0.985870
			-0.137207  0.433175 -0.890805
			-0.600035  0.561395 -0.569906
			-0.439470  0.457555 -0.772987
			-0.739160  0.663005  0.118604
			-0.352941  0.425662  0.833214
			 0.270877 -0.188748  0.943928
			 0.415738 -0.485563  0.769019
			 0.132296 -0.623291  0.770718
			-0.193267 -0.438763  0.877573
			-0.552268  0.029974  0.833128
			 0.320771 -0.132558  0.937835
			 0.560887 -0.177373  0.808668
			 0.854872 -0.070314  0.514052
			-0.397338  0.012487  0.917587
			 0.970771  0.239978 -0.003810
			 0.098761  0.562533 -0.820855
			 0.639316  0.496080 -0.587519
			 0.403598  0.659217 -0.634462
			-0.092390  0.591226 -0.801196
			-0.442315  0.291252 -0.848251
			-0.130800  0.461779 -0.877298
			 0.156082  0.593182 -0.789793
			-0.143782  0.645298 -0.750278
			-0.074851  0.593378 -0.801436
			-0.575662  0.478468 -0.663085
			-0.761786  0.645338 -0.056747
			-0.382532  0.357874  0.851819
			 0.331389 -0.076963  0.940350
			 0.593417  0.090253  0.799819
			 0.170569  0.125841  0.977277
			-0.426974  0.169728  0.888193
			-0.025336 -0.016078  0.999550
			-0.081935 -0.297819  0.951099
			 0.495457 -0.445414  0.745741
			 0.514960 -0.426348  0.743669
			 0.866887 -0.081935  0.491725
			-0.377588 -0.136356  0.915879
			 0.969553  0.243775 -0.023273
			-0.066535  0.816978 -0.572818
			 0.739646  0.333812 -0.584374
			 0.508489  0.684588 -0.522282
			-0.442318  0.685187 -0.578682
			-0.010235  0.583685 -0.811916
			-0.586090  0.002488 -0.810242
			-0.681089  0.051971 -0.730354
			-0.409647  0.457786 -0.789064
			 0.083851  0.406148 -0.909952
			-0.079658  0.368164 -0.926342
			-0.052047  0.343138 -0.937842
			-0.971137  0.198047  0.132929
			-0.698006  0.030038  0.715461
			-0.009432  0.016842  0.999814
			 0.202009  0.092954  0.974963
			 0.549941  0.276194  0.788215
			 0.617407  0.250245  0.745779
			 0.483965 -0.036129  0.874341
			 0.458891 -0.582911  0.670547
			-0.257390 -0.543298  0.799111
			 0.164314 -0.614274  0.771795
			 0.141582 -0.681450  0.718039
			 0.506996 -0.655262  0.559988
			 0.866462 -0.247679  0.433474
			 0.711924 -0.655327  0.252410
			 0.401750 -0.726802  0.557096
			 0.223996 -0.685743  0.692518
			 0.994583 -0.082279 -0.063516
			 0.060542  0.700854 -0.710731
			 0.893053 -0.261102 -0.366445
			 0.826442  0.184021 -0.532099
			 0.784004  0.388111 -0.484467
			-0.505652  0.324315 -0.799460
			-0.115184  0.292423 -0.949327
			-0.835504 -0.047385 -0.547437
			-0.609576 -0.375964 -0.697903
			-0.956671 -0.279539 -0.081475
			-0.497950  0.141970 -0.855506
			 0.083404 -0.075846 -0.993625
			-0.063722 -0.120897 -0.990618
			-0.068365 -0.116040 -0.990889
			-0.515471 -0.218576  0.828562
			 0.077295 -0.274121  0.958584
			 0.031394 -0.076656  0.996563
			-0.244220 -0.361732  0.899726
			-0.011863 -0.621355  0.783440
			 0.372101 -0.920874  0.116328
			 0.149821 -0.942242  0.299555
			-0.135466 -0.931271  0.338206
			 0.279989 -0.918591  0.278921
			 0.247891 -0.850563  0.463781
			 0.502058 -0.860422  0.087249
			 0.861423 -0.500939 -0.083734
			 0.473255 -0.754717  0.454348
			 0.780681  0.226821 -0.582314
			 0.096078  0.175974 -0.979695
			 0.965415 -0.078785 -0.248527
			-0.481247 -0.201013 -0.853227
			-0.146467 -0.148164 -0.978057
			-0.697501 -0.324589 -0.638854
			-0.834727 -0.516362 -0.191315
			-0.584691 -0.636713 -0.502726
			-0.775856 -0.629851 -0.036530
			-0.442161 -0.523953  0.727989
			 0.136479 -0.523579 -0.840975
			 0.002246 -0.562174 -0.827016
			 0.012317 -0.600631 -0.799432
			-0.042269 -0.591951  0.804865
			-0.518439 -0.519990  0.678845
			-0.629958 -0.719598  0.292116
			 0.216467 -0.848431 -0.483018
			 0.108861 -0.900286 -0.421467
			 0.051629 -0.955790 -0.289482
			-0.154026 -0.932198 -0.327541
			-0.084173 -0.977320 -0.194322
			 0.257550 -0.966059  0.019967
			 0.892877 -0.437964 -0.104681
			 0.899045 -0.140424 -0.414727
			 0.213885 -0.428629 -0.877799
			-0.356694 -0.680892 -0.639652
			-0.152219 -0.620273 -0.769474
			-0.651614 -0.733734 -0.192442
			-0.815009 -0.564892  0.129066
			-0.263449 -0.922448  0.282283
			-0.619942 -0.664017  0.418035
			 0.170350 -0.787937 -0.591723
		</DataArray>
	</PointData>
	<Points>
		<DataArray type="Float32" NumberOfComponents="3" format="ascii">
			 0.027854  0.002109 -0.000101
			 0.024760  0.001479  0.010537
			 0.024282 -0.007573  0.005905
			 0.024583 -0.009018 -0.006268
			 0.026433  0.003638 -0.006985
			 0.024071  0.009600  0.000759
			 0.017391 -0.010860  0.011146
			 0.018492 -0.000038  0.014273
			 0.019645  0.009080  0.008341
			 0.021749 -0.013791  0.005002
			 0.022610 -0.015816 -0.004781
			 0.016465 -0.016028  0.009788
			 0.018468 -0.015953 -0.011676
			 0.019249 -0.007270 -0.013551
			 0.019588  0.003408 -0.016642
			 0.016729  0.010867 -0.017519
			 0.024290  0.011130 -0.004643
			 0.020026  0.013001  0.001815
			 0.011542  0.001637  0.015542
			 0.005398 -0.000690  0.019434
			 0.005013 -0.004748  0.016703
			 0.016081  0.008876  0.012126
			 0.019388 -0.025069  0.003263
			 0.020151 -0.026041 -0.003740
			 0.014156 -0.024892  0.009062
			 0.017096 -0.025894 -0.009652
			 0.004575 -0.014511  0.012973
			 0.011066 -0.016463 -0.013697
			 0.011967 -0.005739 -0.016033
			 0.012804  0.003103 -0.016102
			 0.009912  0.011533 -0.017101
			 0.009068  0.015043 -0.013917
			 0.013226  0.016036 -0.011157
			 0.018511  0.015741 -0.002042
			 0.017322  0.014660  0.004732
			 0.011149  0.010540  0.014367
			 0.003212  0.012963  0.016098
			 0.004296  0.004489  0.019824
			-0.006301  0.003304  0.019505
			-0.005734 -0.003239  0.020478
			-0.005355 -0.006503  0.017646
			 0.012975 -0.035311  0.008599
			 0.017229 -0.034984  0.005045
			 0.018509 -0.035758 -0.002253
			 0.003779 -0.025667  0.011625
			 0.003443 -0.034521  0.011607
			 0.009562 -0.024553 -0.011582
			 0.015653 -0.036442 -0.008620
			-0.002809 -0.016426  0.012861
			 0.004305 -0.018200 -0.018051
			 0.005898 -0.009126 -0.023008
			 0.007928 -0.002730 -0.025760
			 0.009524 -0.000115 -0.025408
			-0.006429  0.009865 -0.020145
			 0.003583  0.002168 -0.025871
			 0.006822  0.019460 -0.008072
			-0.003064  0.015969 -0.015210
			 0.011171  0.019828 -0.002725
			 0.010146  0.017822  0.007950
			 0.001974  0.018938  0.009671
			-0.006954  0.017758  0.009856
			-0.007140  0.012307  0.015758
			-0.017056  0.008751  0.009944
			-0.018724  0.000592  0.011505
			-0.017520 -0.008306  0.012810
			-0.014390 -0.011873  0.012131
			-0.010544 -0.018210  0.009109
			 0.005155 -0.058247  0.012528
			 0.011350 -0.058583  0.010118
			 0.014939 -0.058299  0.006254
			 0.015754 -0.058704 -0.000280
			-0.002654 -0.024438  0.011207
			-0.001711 -0.033788  0.010947
			 0.007997 -0.037127 -0.009832
			 0.004164 -0.024834 -0.015104
			 0.012421 -0.058374 -0.007248
			-0.009058 -0.024126  0.007834
			-0.001909 -0.017735 -0.018806
			-0.003444 -0.010592 -0.022233
			-0.001157 -0.004648 -0.026629
			-0.013509  0.007038 -0.017171
			-0.012041  0.013902 -0.012408
			-0.008652  0.003379 -0.021587
			-0.012863 -0.002307 -0.017639
			 0.006317  0.021272 -0.001567
			 0.002505  0.020796 -0.003827
			-0.001359  0.019404 -0.009557
			 0.005472  0.021669  0.001238
			 0.001073  0.022044  0.003338
			-0.003665  0.021454  0.003347
			-0.007348  0.020226  0.000235
			-0.012528  0.016575  0.004960
			-0.013462  0.016779 -0.000416
			-0.019802  0.008789  0.001702
			-0.022468 -0.000957  0.003376
			-0.021968 -0.009038  0.003772
			-0.018449 -0.013099  0.002215
			-0.014280 -0.017946  0.001306
			-0.011682 -0.023348  0.000390
			 0.005843 -0.078614  0.014007
			-0.001397 -0.058023  0.011292
			-0.000971 -0.078406  0.012825
			 0.011737 -0.078680  0.011398
			 0.014408 -0.078640  0.006850
			 0.014216 -0.078673  0.000837
			-0.007729 -0.033702  0.006709
			-0.006227 -0.057634  0.006327
			 0.002455 -0.038302 -0.011355
			 0.005761 -0.059147 -0.010080
			-0.001147 -0.024647 -0.015237
			 0.011006 -0.080218 -0.006478
			-0.008948 -0.035251 -0.000538
			-0.007607 -0.017056 -0.011973
			-0.009173 -0.008795 -0.016944
			-0.019259 -0.004969 -0.012134
			-0.020089  0.003519 -0.009814
			-0.016562  0.011589 -0.008277
			-0.010562  0.017845 -0.006436
			-0.015188 -0.008306 -0.011917
			-0.001524  0.021010 -0.004180
			-0.005234  0.020642 -0.002760
			-0.011317 -0.017232 -0.008963
			-0.008392 -0.023737 -0.008126
			-0.006559 -0.037566 -0.006859
			 0.005044 -0.108424  0.016444
			-0.001600 -0.107926  0.014714
			-0.005797 -0.078273  0.007850
			-0.006777 -0.107778  0.009270
			 0.011103 -0.108467  0.013278
			 0.013268 -0.108755  0.008893
			 0.012532 -0.108595  0.001851
			-0.007002 -0.058320 -0.002816
			-0.006513 -0.080003 -0.001083
			-0.001477 -0.038620 -0.011216
			-0.002926 -0.058819 -0.008300
			 0.005014 -0.081323 -0.009472
			 0.008873 -0.109516 -0.004733
			-0.005479 -0.058671 -0.006267
			-0.002992 -0.135586  0.015484
			 0.003609 -0.136076  0.016963
			-0.007074 -0.107987  0.001383
			-0.008635 -0.134958  0.004332
			-0.007775 -0.135206  0.010782
			 0.008385 -0.136144  0.014018
			 0.010019 -0.135308  0.011218
			 0.010321 -0.135011  0.003590
			-0.002815 -0.080019 -0.005691
			 0.004186 -0.109047 -0.006951
			 0.007190 -0.135725 -0.003280
			-0.010366 -0.166282  0.011901
			-0.005096 -0.167686  0.016220
			 0.001085 -0.167950  0.018310
			 0.006537 -0.169008  0.012640
			-0.002390 -0.108751 -0.003685
			-0.004416 -0.135486 -0.000387
			-0.011485 -0.165526  0.005515
			-0.007226 -0.165798  0.001060
			 0.005598 -0.167610  0.004699
			 0.002359 -0.166167 -0.001584
			 0.001929 -0.135734 -0.004931
			-0.013139 -0.200569  0.008432
			-0.012692 -0.199953  0.012604
			-0.006418 -0.200290  0.016789
			 0.000505 -0.201827  0.018442
			 0.009187 -0.201202  0.014741
			 0.000163 -0.167070 -0.003706
			-0.009232 -0.200837  0.003509
			-0.001758 -0.201084 -0.000703
			 0.005631 -0.200964  0.009363
			 0.003180 -0.200881  0.005783
			 0.000176 -0.200616  0.001166
			-0.010456 -0.227758  0.005339
			-0.014687 -0.228585  0.011329
			-0.012990 -0.228709  0.014995
			-0.004296 -0.228184  0.018001
			 0.001685 -0.227823  0.017508
			 0.013307 -0.225139  0.013663
			-0.005189 -0.226282  0.000349
			 0.000397 -0.225858  0.002972
			 0.009303 -0.224929  0.010396
			 0.004758 -0.225422  0.007741
			-0.004135 -0.245528 -0.000265
			-0.010412 -0.246434  0.003299
			-0.017203 -0.246600  0.011350
			-0.015039 -0.247216  0.014647
			-0.001830 -0.248386  0.016012
			 0.007915 -0.248244  0.015908
			 0.018245 -0.244689  0.012415
			 0.017991 -0.246751  0.014746
			 0.003775 -0.246177  0.003676
			 0.015556 -0.244309  0.009084
			 0.011188 -0.246319  0.007077
			 0.005817 -0.258217  0.002368
			-0.014503 -0.263565  0.000454
			-0.010179 -0.263985 -0.000573
			-0.005611 -0.262908 -0.000004
			-0.000788 -0.261996 -0.000431
			-0.016742 -0.261620  0.003028
			-0.020628 -0.256693  0.008648
			-0.020660 -0.256288  0.011582
			-0.018885 -0.256635  0.014164
			-0.009033 -0.263249  0.013795
			-0.002737 -0.261080  0.013834
			 0.001576 -0.262853  0.014080
			 0.021489 -0.259209  0.013371
			 0.006863 -0.267505  0.015097
			 0.014642 -0.263014  0.016302
			 0.022729 -0.258785  0.010412
			 0.012387 -0.258669  0.004778
			 0.020337 -0.257904  0.007021
			 0.014485 -0.258965  0.005766
			 0.007654 -0.265267  0.001119
			-0.016627 -0.267746 -0.000128
			-0.011239 -0.270084  0.001752
			-0.005792 -0.270565  0.002639
			 0.000734 -0.270789 -0.002468
			-0.025486 -0.264513  0.007081
			-0.019938 -0.265812  0.002373
			-0.027431 -0.264447  0.011125
			-0.024810 -0.264008  0.014122
			-0.012287 -0.265673  0.014527
			-0.008659 -0.267749  0.009322
			-0.004046 -0.266873  0.008555
			-0.001968 -0.269888  0.006497
			-0.000804 -0.273009  0.006707
			 0.014774 -0.272382  0.015922
			 0.020283 -0.269845  0.013619
			 0.023278 -0.270107  0.010133
			 0.008755 -0.273255  0.016132
			 0.024691 -0.270353  0.005653
			 0.014034 -0.267061  0.000262
			 0.023173 -0.268616  0.003717
			 0.018970 -0.268039  0.001475
			 0.009187 -0.272029 -0.001078
			-0.023779 -0.272822  0.000649
			-0.018301 -0.274688 -0.003016
			-0.012248 -0.275168 -0.001702
			-0.007754 -0.275894 -0.001719
			 0.000684 -0.274350 -0.004707
			-0.030150 -0.271284  0.005259
			-0.033561 -0.269769  0.011717
			-0.030336 -0.269340  0.015138
			-0.018158 -0.271245  0.015074
			-0.012043 -0.273513  0.008900
			-0.005501 -0.274579  0.005340
			 0.000825 -0.280692  0.010617
			-0.003929 -0.283351  0.010290
			 0.008593 -0.283386  0.015514
			 0.011712 -0.283266  0.013655
			 0.018610 -0.282029  0.011157
			 0.024144 -0.275627  0.007738
			 0.000919 -0.284090  0.010742
			 0.025988 -0.273498  0.003804
			 0.015696 -0.271292 -0.004640
			 0.024740 -0.274611 -0.000493
			 0.019630 -0.271669 -0.003188
			 0.009378 -0.275455 -0.006528
			 0.005499 -0.276102 -0.004558
			-0.025161 -0.278075  0.001221
			-0.032387 -0.276981  0.003839
			-0.020180 -0.279504 -0.006837
			-0.014343 -0.280467 -0.006827
			-0.008607 -0.280431 -0.005709
			-0.000903 -0.278913 -0.008309
			-0.037069 -0.275823  0.012095
			-0.035824 -0.277460  0.014461
			-0.027126 -0.275070  0.016214
			-0.016358 -0.277688  0.013986
			-0.013517 -0.281583  0.014665
			-0.009895 -0.279512  0.009879
			-0.009610 -0.286115  0.012223
			-0.010950 -0.292294  0.009846
			 0.000713 -0.288443  0.009019
			-0.003392 -0.288989  0.008129
			 0.007602 -0.289770  0.012008
			 0.011078 -0.286848  0.010013
			 0.024467 -0.281841  0.005944
			 0.023044 -0.286642  0.004084
			 0.018850 -0.288013  0.006203
			 0.015783 -0.287217  0.008131
			 0.026157 -0.277675  0.001313
			 0.015369 -0.273949 -0.009407
			 0.025410 -0.281256  0.001673
			 0.021674 -0.275581 -0.004468
			 0.019958 -0.276104 -0.008278
			 0.009832 -0.279198 -0.010445
			 0.004436 -0.280209 -0.006644
			-0.024913 -0.283059  0.002048
			-0.030881 -0.283037  0.005730
			-0.035264 -0.282523  0.011006
			-0.023015 -0.285010 -0.007075
			-0.016511 -0.285405 -0.007700
			-0.008751 -0.284869 -0.005582
			-0.002500 -0.283851 -0.009011
			-0.034486 -0.281143  0.015680
			-0.027917 -0.279745  0.015644
			-0.014977 -0.286624  0.016309
			-0.018902 -0.285524  0.013598
			-0.017537 -0.294331  0.012766
			-0.014201 -0.297126  0.005731
			-0.004868 -0.292218  0.003768
			-0.000028 -0.292434  0.004240
			 0.007109 -0.293489  0.007196
			 0.010361 -0.291267  0.004864
			 0.019231 -0.288805  0.003645
			 0.019626 -0.287180 -0.003841
			 0.013499 -0.292379  0.002999
			 0.020445 -0.279706 -0.010054
			 0.015424 -0.279259 -0.012839
			 0.020701 -0.281684 -0.005957
			 0.008925 -0.284163 -0.010217
			 0.004227 -0.283335 -0.006725
			-0.023736 -0.290537 -0.005840
			-0.024720 -0.287244  0.002647
			-0.029785 -0.287491  0.006951
			-0.034931 -0.284157  0.012728
			-0.034412 -0.283432  0.014259
			-0.015859 -0.290936 -0.006170
			-0.008433 -0.288561 -0.004196
			-0.001870 -0.288603 -0.007450
			-0.027312 -0.283836  0.014061
			-0.020036 -0.288766  0.009706
			-0.019880 -0.297748  0.006434
			-0.014346 -0.295551 -0.001052
			-0.007220 -0.291563 -0.000555
			 0.000122 -0.292996 -0.001095
			 0.006005 -0.291635 -0.000472
			 0.012057 -0.293554 -0.002396
			 0.017122 -0.294266 -0.002242
			 0.019646 -0.289768 -0.006217
			 0.020408 -0.284376 -0.009619
			 0.016740 -0.286117 -0.012512
			 0.009953 -0.289716 -0.007963
			 0.004902 -0.288087 -0.004910
			-0.022553 -0.295725  0.000366
			-0.022395 -0.290179  0.005034
			-0.028731 -0.287863  0.009929
			-0.021781 -0.290508  0.007039
			 0.016959 -0.291199 -0.007383
		</DataArray>
	</Points>
			<Polys>
				<DataArray type="Int32" Name="connectivity" format="ascii">
					0 1 2 
					3 4 0 
					5 0 4 
					3 0 2 
					5 1 0 
					6 2 1 
					7 1 8 
					5 8 1 
					6 1 7 
					2 9 10 
					11 9 2 
					2 10 3 
					11 2 6 
					3 10 12 
					13 4 3 
					3 12 13 
					13 14 4 
					15 16 4 
					15 4 14 
					5 4 16 
					17 5 16 
					5 17 8 
					6 18 19 
					7 18 6 
					11 6 20 
					6 19 20 
					8 18 7 
					8 21 18 
					17 21 8 
					9 22 23 
					9 11 24 
					9 23 10 
					9 24 22 
					10 23 25 
					10 25 12 
					11 20 26 
					26 24 11 
					13 12 27 
					25 27 12 
					28 14 13 
					13 27 28 
					28 29 14 
					29 15 14 
					29 30 15 
					31 32 15 
					32 16 15 
					31 15 30 
					32 33 16 
					17 16 33 
					17 34 21 
					33 34 17 
					35 18 21 
					36 37 18 
					37 19 18 
					36 18 35 
					38 39 19 
					20 19 39 
					38 19 37 
					26 20 40 
					20 39 40 
					35 21 34 
					41 42 22 
					42 23 22 
					41 22 24 
					42 43 23 
					25 23 43 
					26 44 24 
					24 44 45 
					24 45 41 
					25 46 27 
					47 46 25 
					25 43 47 
					26 40 48 
					48 44 26 
					27 49 50 
					46 49 27 
					27 50 28 
					28 50 51 
					51 52 28 
					29 28 52 
					29 52 30 
					53 30 54 
					52 54 30 
					31 30 53 
					55 31 56 
					32 31 55 
					53 56 31 
					57 33 32 
					57 32 55 
					58 34 33 
					58 33 57 
					35 34 58 
					59 36 35 
					59 35 58 
					60 61 36 
					60 36 59 
					61 37 36 
					61 38 37 
					62 63 38 
					62 38 61 
					63 39 38 
					63 64 39 
					65 40 39 
					65 39 64 
					66 48 40 
					66 40 65 
					67 68 41 
					68 42 41 
					67 41 45 
					68 69 42 
					69 43 42 
					69 70 43 
					47 43 70 
					48 71 44 
					45 44 71 
					45 71 72 
					72 67 45 
					47 73 46 
					46 74 49 
					73 74 46 
					47 70 75 
					75 73 47 
					76 71 48 
					76 48 66 
					50 49 77 
					74 77 49 
					78 79 50 
					79 51 50 
					50 77 78 
					54 52 51 
					54 51 79 
					53 80 81 
					53 82 83 
					53 81 56 
					53 83 80 
					54 82 53 
					54 79 82 
					84 57 55 
					85 55 86 
					84 55 85 
					55 56 86 
					86 56 81 
					87 58 57 
					87 57 84 
					88 59 58 
					88 58 87 
					89 60 59 
					89 59 88 
					90 91 60 
					90 60 89 
					91 61 60 
					91 62 61 
					92 93 62 
					92 62 91 
					93 63 62 
					93 94 63 
					94 64 63 
					94 95 64 
					96 65 64 
					96 64 95 
					97 66 65 
					97 65 96 
					98 76 66 
					98 66 97 
					99 68 67 
					72 100 67 
					67 101 99 
					67 100 101 
					99 102 68 
					102 69 68 
					102 103 69 
					103 70 69 
					103 104 70 
					75 70 104 
					105 72 71 
					105 71 76 
					106 72 105 
					106 100 72 
					107 73 108 
					75 108 73 
					73 107 74 
					74 109 77 
					107 109 74 
					75 104 110 
					110 108 75 
					111 105 76 
					111 76 98 
					77 112 113 
					77 113 78 
					109 112 77 
					79 78 113 
					79 113 82 
					80 83 114 
					115 81 80 
					80 114 115 
					81 116 117 
					115 116 81 
					86 81 117 
					82 113 83 
					83 113 118 
					118 114 83 
					85 87 84 
					85 119 120 
					85 120 90 
					85 86 119 
					85 90 89 
					85 89 88 
					85 88 87 
					119 86 117 
					92 91 90 
					120 92 90 
					120 117 92 
					117 93 92 
					117 116 93 
					116 94 93 
					116 115 94 
					115 95 94 
					115 114 95 
					118 96 95 
					118 95 114 
					121 97 96 
					121 96 118 
					122 98 97 
					122 97 121 
					123 111 98 
					123 98 122 
					124 102 99 
					99 101 125 
					99 125 124 
					126 101 100 
					126 100 106 
					127 125 101 
					127 101 126 
					124 128 102 
					128 103 102 
					128 129 103 
					129 104 103 
					129 130 104 
					110 104 130 
					131 106 105 
					131 105 111 
					106 131 132 
					106 132 126 
					107 133 109 
					134 133 107 
					107 108 134 
					134 108 135 
					110 135 108 
					109 122 112 
					133 122 109 
					110 130 136 
					136 135 110 
					137 131 111 
					137 111 123 
					112 121 118 
					122 121 112 
					112 118 113 
					119 117 120 
					133 123 122 
					137 123 133 
					124 125 138 
					124 138 139 
					139 128 124 
					138 125 127 
					126 132 140 
					126 140 127 
					141 142 127 
					138 127 142 
					141 127 140 
					139 143 128 
					128 143 144 
					128 144 129 
					144 130 129 
					144 145 130 
					136 130 145 
					132 131 137 
					132 137 146 
					146 140 132 
					137 133 134 
					146 137 134 
					134 135 146 
					136 147 135 
					147 146 135 
					136 145 148 
					148 147 136 
					149 150 138 
					139 138 150 
					149 138 142 
					139 151 152 
					139 150 151 
					139 152 143 
					146 153 140 
					140 153 154 
					140 154 141 
					155 142 141 
					141 154 156 
					141 156 155 
					155 149 142 
					143 152 144 
					152 145 144 
					152 157 145 
					158 148 145 
					158 145 157 
					147 153 146 
					148 159 147 
					159 153 147 
					158 159 148 
					160 161 149 
					160 149 155 
					161 150 149 
					161 162 150 
					151 150 162 
					151 162 163 
					163 152 151 
					163 164 152 
					164 157 152 
					159 154 153 
					165 156 154 
					165 154 159 
					155 166 160 
					155 156 166 
					167 166 156 
					167 156 165 
					164 168 157 
					157 168 169 
					169 158 157 
					169 170 158 
					158 165 159 
					170 165 158 
					160 166 171 
					160 171 172 
					172 161 160 
					172 173 161 
					173 162 161 
					173 174 162 
					163 162 174 
					163 174 175 
					175 164 163 
					175 176 164 
					176 168 164 
					170 167 165 
					177 171 166 
					177 166 167 
					178 177 167 
					178 167 170 
					176 179 168 
					169 168 179 
					169 179 180 
					180 170 169 
					180 178 170 
					181 182 171 
					172 171 182 
					181 171 177 
					172 183 184 
					172 182 183 
					172 184 173 
					184 174 173 
					184 185 174 
					175 174 185 
					176 175 186 
					175 185 186 
					187 176 188 
					187 179 176 
					176 186 188 
					177 189 181 
					177 178 189 
					189 178 180 
					187 190 179 
					180 179 190 
					180 190 191 
					189 180 191 
					181 189 192 
					182 181 193 
					194 193 181 
					181 195 194 
					196 195 181 
					181 192 196 
					182 197 198 
					182 198 183 
					182 193 197 
					198 199 183 
					199 184 183 
					199 200 184 
					201 184 200 
					202 185 184 
					202 184 201 
					203 186 185 
					203 185 202 
					204 188 186 
					205 206 186 
					205 186 203 
					206 204 186 
					207 190 187 
					187 204 207 
					187 188 204 
					208 192 189 
					208 189 191 
					207 209 190 
					191 190 209 
					191 209 210 
					191 210 208 
					211 192 208 
					196 192 211 
					197 193 212 
					212 193 194 
					213 212 194 
					194 214 213 
					195 214 194 
					196 214 195 
					196 215 214 
					211 215 196 
					216 198 197 
					216 197 217 
					197 212 217 
					218 199 198 
					218 198 216 
					218 200 199 
					218 219 200 
					220 200 219 
					201 200 220 
					201 221 222 
					220 221 201 
					201 222 202 
					202 222 223 
					202 223 203 
					203 223 224 
					203 224 205 
					206 225 204 